ITEM: TIMESTEP
85800
ITEM: NUMBER OF ATOMS
13500
ITEM: BOX BOUNDS pp pp pp
-2.4978611315116694e-01 5.3769786113139673e+01
-2.4978611315116694e-01 5.3769786113139673e+01
-2.4978611315116694e-01 5.3769786113139673e+01
ITEM: ATOMS id type x y z vx vy vz
7 2 3.27737 1.619 1.32491 -0.689282 -5.13735 -3.33747
64 2 1.42006 3.29879 1.15415 -0.0570548 1.25132 -0.212659
902 3 1.74511 1.27653 3.03114 2.05196 4.15522 0.0379657
965 3 3.57329 3.31162 3.00622 1.19415 2.21098 -5.14005
961 1 -0.134844 3.10978 2.85192 2.50426 0.762692 0.595075
3 2 0.029149 1.23883 1.5647 -0.13337 -2.1157 -2.47713
65 1 3.50918 3.39379 -0.233593 3.23993 -1.97713 -1.28406
11 1 6.99274 1.59227 1.50597 -1.44027 5.12049 -2.82326
68 3 5.16805 3.36105 1.27631 1.08874 -4.707 2.38329
906 3 5.06632 1.53014 3.00128 -4.72972 -0.43872 -4.61159
969 2 6.97095 3.32749 3.18019 -3.20564 4.95884 -0.864186
910 2 8.74328 1.63836 3.03671 0.585113 0.622833 5.19849
909 3 6.90263 -0.247501 3.22377 -3.36206 -0.444789 -1.69263
10 1 8.70159 1.54139 -0.193722 -3.55628 -1.45452 0.0927478
72 3 8.72771 3.42549 1.29246 -2.69231 1.55317 -1.4842
15 2 10.3693 1.76207 1.32666 -4.27151 -5.43208 -2.246
76 3 12.401 3.31729 1.39959 -1.8627 -1.5313 -5.04437
914 1 12.5794 1.77234 3.20197 -4.00324 2.50974 -0.0692809
973 3 10.5967 3.4309 3.18634 3.37195 1.20306 -0.201747
913 1 10.9353 0.216525 3.14733 3.0237 0.266285 -5.17456
19 1 14.3296 1.68526 1.2721 -8.6438 0.528665 2.49113
80 1 16.3611 3.34398 1.25618 -0.189161 -2.05473 0.439363
918 2 15.9305 1.63482 3.13374 -4.00238 2.57132 1.76899
977 3 14.2919 3.22344 3.23658 3.89207 -2.9621 -7.08191
20 2 16.1233 -0.102985 1.16339 -1.85302 -5.90781 4.5147
981 2 17.8278 3.17415 3.39085 3.22739 2.23757 -2.73468
23 1 17.7794 1.51759 1.17946 1.12076 4.18148 -0.503206
27 3 21.596 1.61941 1.09959 4.85292 -8.59639 2.87435
84 3 19.4411 3.48991 1.2896 -2.52361 5.14447 -1.97898
922 1 19.5635 1.67222 3.07682 -0.268997 -9.75885 -1.50645
985 3 21.2938 3.2628 3.21212 5.04393 -4.17525 4.99862
921 3 17.759 0.0177725 3.12157 -3.63702 7.41893 1.83873
24 2 19.5655 -0.037957 1.27871 0.808935 8.04884 7.29062
31 1 24.7093 1.52172 1.47046 2.88734 2.71058 -0.168035
88 2 23.2912 3.44105 1.21203 -8.26103 1.18614 -3.16948
926 3 22.9953 1.68803 3.18921 3.70342 -4.02767 -0.150321
989 2 24.8663 3.36689 2.88751 -7.96034 6.74134 9.24084
929 3 24.8514 -0.211461 3.12906 -0.881511 -3.21475 -2.92075
930 2 26.5581 1.2488 3.07236 -0.0900259 -3.99562 3.3776
28 2 23.0455 -0.169288 1.0838 1.12691 2.14611 -4.14541
32 2 26.4189 -0.159794 1.00634 -0.0261671 3.94663 -0.783647
92 1 26.6708 3.0589 1.41886 -9.55541 7.67785 -2.5757
67 3 3.39789 5.17627 1.44187 0.571002 0.643902 -7.76395
124 1 1.74988 6.90404 1.32443 1.5458 -3.50691 -3.50387
962 1 1.62523 4.82345 3.19803 -5.43174 -2.53777 -4.66686
1025 3 3.59283 7.03428 3.08218 -3.35992 3.23458 -2.97014
1021 1 -0.18434 6.46799 2.81577 -0.886339 -5.46698 -2.19459
127 3 3.28976 8.58942 1.20907 4.6743 -3.58903 -0.122772
1022 3 1.67125 8.68191 3.37118 3.0827 -7.41203 -1.68246
71 1 6.83402 5.29091 1.41732 -0.457698 -4.09563 -2.02061
128 2 5.16527 6.79224 1.37471 1.8186 -0.940848 2.42335
966 2 5.04153 4.95858 3.25781 -1.39282 -3.66827 1.62115
1029 1 6.89898 6.98216 3.04298 -0.716915 -0.221285 2.78597
1026 1 5.34459 8.69672 3.20654 2.47189 0.736014 -1.05304
131 2 6.81124 8.70411 1.53851 -2.62032 -5.55483 0.267402
970 3 8.88701 5.13209 3.16115 -0.412635 4.03904 -3.70691
132 2 8.80152 7.02355 1.44326 0.0119343 0.601536 1.58941
75 3 10.6535 5.13441 1.18672 0.0206756 -2.34134 0.298919
136 2 12.3542 6.89115 1.32617 6.20572 -1.35336 -6.51942
974 3 12.5059 5.12089 3.25541 -4.08899 0.46676 -3.82031
1033 3 10.4245 7.12492 3.10237 4.26756 1.25338 2.73684
1034 1 12.3714 8.58328 3.11908 1.13353 -0.00186331 1.7679
135 1 10.9391 8.65397 1.37707 4.32147 -0.421484 6.78434
79 2 14.4107 5.22897 1.41585 -0.163902 0.651105 -10.1805
140 2 16.0865 7.19284 1.28204 1.48857 -6.7367 0.254752
978 2 16.1337 5.24881 3.29166 5.33527 6.32075 1.97917
1037 1 14.2658 6.764 3.15603 -9.01437 -6.58445 -7.06643
139 1 14.2491 8.57352 1.44466 -0.981056 -1.74623 -2.26227
1038 2 15.8777 8.73864 3.39818 -0.0642464 -4.15513 -2.29544
143 2 17.7952 8.65541 1.31001 6.85111 -10.9614 -6.72551
83 3 17.8155 5.50497 1.33136 3.25333 -0.300835 -4.93741
1041 1 17.8672 7.12256 3.12024 -0.245106 -1.91773 0.0476049
87 3 21.3318 4.95896 1.36753 4.21449 -1.41976 2.67436
144 3 19.7629 6.89233 1.36659 -2.23789 -3.08028 -0.147916
982 2 19.5176 5.12563 3.08798 -0.513739 1.954 -1.41874
1045 1 21.1776 6.63867 3.28592 3.3056 -2.22723 -0.596474
147 3 21.4383 8.72567 1.61073 1.0913 3.03023 0.479733
91 1 24.7685 5.20935 1.19958 9.37678 1.13542 1.16347
148 1 23.0606 6.89142 1.33774 -6.78975 -6.14747 -1.05166
986 3 23.1231 5.18804 3.09384 6.94655 -0.314295 -0.626689
1049 3 24.8261 7.08902 3.02605 -5.19233 -2.5922 -1.17852
152 1 26.5441 6.95344 1.36108 3.37426 4.43835 -1.76269
990 1 26.5895 5.12501 3.07046 -0.137012 0.845713 -3.13924
1050 2 26.5464 8.58885 3.19697 4.61752 -3.12016 3.59687
151 3 24.9814 8.64375 1.10918 -0.0934569 -4.19271 -0.275906
184 3 1.51336 10.3709 1.53178 -0.765587 -6.41238 3.68551
187 3 3.25161 12.0793 1.5103 -7.36831 0.693661 0.350336
1082 3 1.51536 12.4325 3.018 4.90186 -3.70147 5.79426
1085 3 3.34976 10.4677 3.27728 -1.91222 9.98865 -8.21589
1081 1 -0.202541 10.2907 3.217 -5.50224 -1.6063 -3.29877
183 3 -0.179151 12.3776 1.44149 2.18477 3.16059 2.55762
188 3 5.46276 10.5077 1.31035 8.77894 1.96894 -2.01632
191 2 7.09781 12.5663 1.01661 -0.0583601 7.87667 -2.12931
1086 1 5.29122 12.0122 3.21154 0.658606 -0.460458 4.08693
1089 3 6.96973 10.6043 3.20049 -0.115724 -1.57338 -4.38921
1030 1 8.70029 8.93676 3.24982 -5.2203 -3.95141 2.7281
1090 3 8.73602 12.3618 3.03566 -4.96235 8.80574 -2.59398
192 2 8.89327 10.6276 1.47872 -1.70655 2.87996 1.70506
195 3 10.749 12.4916 1.30885 1.9076 -11.2156 7.0448
196 2 12.0729 10.6401 1.47593 7.90597 -5.83547 -0.247212
1093 1 10.5864 10.3191 3.28643 -2.32329 -7.28608 3.20279
1094 1 12.3971 12.3261 3.36975 -4.36975 0.113989 1.01252
194 1 12.6041 12.7196 -0.207021 -5.5757 3.33957 -1.95166
199 2 14.2952 12.5649 1.61099 -3.7125 0.290116 1.84224
200 1 15.8711 10.3925 1.32618 -4.61935 -0.876291 4.43461
1097 2 14.0184 10.4514 2.97697 -6.40194 -1.36465 -2.85293
1098 1 16.2561 12.3868 2.98327 4.56365 0.793858 -8.64527
197 1 13.7958 10.778 0.0380369 1.70475 -5.48404 0.944605
1042 2 19.6648 8.77807 3.13587 -5.12251 3.38599 1.91246
1101 1 17.8216 10.4903 3.20812 -4.55083 3.34248 1.92476
203 2 17.9422 12.2742 1.41612 -3.46961 1.89409 0.721108
204 2 19.4398 10.5221 1.13656 0.169088 5.0747 0.65604
207 1 21.5734 12.2971 1.44776 8.67394 4.09965 6.00307
1102 1 19.6207 12.4975 3.00698 -3.82113 2.5781 0.260925
1105 3 21.3247 10.4357 3.18339 0.0598667 0.462568 -1.73783
1046 2 23.3529 8.8704 2.9409 -1.38851 -3.34112 1.93213
208 3 23.3116 10.5827 1.315 9.95924 0.406614 -4.87154
211 1 24.8615 12.3447 1.14319 -1.16198 3.20591 1.74731
1106 2 22.9599 12.4452 3.39771 0.510998 3.03224 3.02536
1109 3 25.2812 10.4762 3.01569 5.27995 -6.59677 8.6623
1110 2 26.5738 12.5484 3.28806 0.679032 0.917294 -6.54912
244 2 1.72281 14.3501 1.31395 -1.60816 1.92709 1.43735
247 1 3.41849 16.0892 1.42966 3.0764 -2.79822 -4.94459
1142 3 1.693 15.9403 3.31047 -3.94712 -1.10295 -5.3164
1145 3 3.33213 14.1095 2.96662 -4.22729 7.61164 -8.19085
243 3 -0.144158 16.0101 1.45712 -3.44813 9.10049 -5.55293
245 2 3.15299 13.9217 -0.0244738 -2.60603 0.977099 -3.16324
1141 2 -0.225539 14.0637 3.17348 -1.7172 -0.256362 4.15179
242 1 1.74129 15.8007 -0.151782 0.511387 5.40022 -6.10136
248 3 5.12071 14.1281 1.3111 -4.41199 7.43397 -4.00336
251 2 6.96366 16.0225 1.34814 2.77152 0.549559 -0.588699
1146 3 5.02757 16.2253 3.09517 -2.57024 1.15131 1.69119
1149 3 6.71915 14.3485 3.14231 2.70121 6.78304 -3.49904
1150 1 8.62229 16.0586 3.12018 3.83588 -4.26958 4.33666
246 1 5.29532 15.9574 -0.217017 2.95685 -5.04511 -3.60926
252 3 8.85624 14.2958 1.43557 -7.63821 1.02082 7.14798
255 2 10.5028 16.0495 1.31792 -10.3662 -2.83918 -2.2363
256 3 12.5147 14.4933 1.45921 3.58282 -2.4555 -0.09908
1153 3 10.433 14.2453 3.45426 -4.13647 0.989434 -0.321893
1154 3 12.4211 16.2808 3.2158 3.33651 -6.94498 1.62875
259 1 14.2541 15.9426 1.22438 2.5979 3.00842 -0.897849
260 3 15.978 14.1116 1.05592 -2.60197 7.82037 3.10036
1157 2 14.3045 14.2552 3.10253 -6.09992 -0.7883 1.57375
1158 1 16.0522 15.6645 3.12897 -1.76419 0.964 0.121717
1217 3 14.3051 17.699 3.22283 -4.50924 -0.737338 -10.1521
263 3 17.5054 16.0924 1.35001 4.27691 2.91646 2.67528
1221 1 17.6787 17.3587 3.26711 -0.514114 2.85612 0.747706
1161 3 17.8857 14.1065 3.08761 3.46131 -8.74873 7.9039
264 2 19.3505 14.0927 1.24455 6.04243 -0.19002 -6.28306
267 1 21.2075 15.9608 1.18546 -2.42428 -0.169414 -1.58438
1162 1 19.4814 15.6571 2.96447 0.710624 2.54184 5.73004
1165 2 21.417 14.204 2.85464 -3.55766 0.78178 7.79774
324 2 19.7926 17.6708 1.47378 -8.92936 1.51528 0.85187
1225 3 21.382 17.6231 3.3286 3.66772 -6.86314 1.24714
268 3 23.1183 14.1159 1.33171 2.75116 0.152393 4.98256
271 2 24.7784 15.8832 1.35917 -0.912415 -0.514061 0.522158
1166 1 23.2684 16.0153 3.03935 -9.1669 -2.58327 2.44698
1169 1 24.7704 14.0124 3.23232 -0.166541 6.07529 -2.542
1170 2 26.4996 15.7467 3.28172 -3.63146 5.04162 4.34385
272 1 26.4704 14.0558 1.4449 -0.406901 0.597833 0.192263
270 2 26.5583 15.6445 -0.207056 3.16883 2.9857 -5.71456
304 2 1.65801 17.8346 1.45656 7.71774 -2.37328 -3.49148
1205 3 3.38336 17.8578 3.2061 -0.900152 1.20848 2.88571
307 3 3.16404 19.8157 1.34609 2.04035 -0.8219 1.03919
364 2 1.43691 21.3092 1.53233 12.6708 2.25242 3.59827
1202 3 1.36105 19.604 3.28087 -4.70648 7.11039 -3.42653
1265 2 3.272 21.497 3.203 2.81647 -0.897503 -3.65971
308 3 4.97719 17.8154 1.24167 -2.3741 2.4043 2.97294
1209 1 6.82722 17.9069 3.09859 -4.46684 0.751547 -1.49002
311 2 6.80658 19.7016 1.29267 5.99944 -4.03943 -2.84488
368 1 5.29735 21.5188 1.16987 0.0344702 0.52259 -2.87479
1206 3 4.78739 19.6263 3.27497 1.53387 -0.318238 -2.10377
1269 3 6.81084 21.5121 2.96027 -10.7987 1.01535 6.68415
1210 3 8.65599 19.9385 2.96507 3.21698 3.61454 3.60839
312 3 8.35902 17.7514 1.40595 4.54005 -6.44638 2.70785
309 3 6.8627 17.8867 -0.169503 -6.33968 -1.20931 -2.19654
372 3 8.78736 21.4008 1.38423 6.12457 0.596702 -4.1218
316 3 12.5536 17.9454 1.42306 1.87219 4.33948 -1.71139
1213 3 10.5319 17.8274 3.07419 -5.69066 0.520825 4.44419
315 1 10.5583 19.6519 1.182 -2.41317 -0.623301 -3.03125
376 3 12.269 21.5779 1.23884 -2.15237 0.98574 0.283411
1214 1 12.4583 19.7536 3.06583 -3.26309 -2.1565 0.815131
1273 2 10.5877 21.5034 3.16922 3.03202 1.77976 4.86798
320 2 15.7621 18.1284 1.32212 5.33228 5.63081 -4.03742
319 2 14.2419 19.8189 1.25874 -2.05381 -3.83827 -1.89801
380 1 15.9073 21.3065 1.7275 -1.47408 -5.01988 0.293248
1218 3 16.1085 19.4977 3.20513 -3.31877 0.195805 -0.786463
1277 2 14.1076 21.2358 3.02956 2.64245 -0.851972 0.455497
1281 3 18.0474 21.2958 3.26879 0.127447 1.02151 6.62597
323 1 17.7894 19.4432 1.38199 -4.27463 1.17671 1.69567
327 2 21.5719 19.498 1.58643 -3.44441 7.48759 1.00644
384 1 19.5178 21.2964 1.56411 -1.46223 1.39594 -4.87005
1222 1 19.3191 19.285 3.1539 -2.09659 -3.32886 -4.45737
1285 2 21.3657 21.5252 3.19816 -1.43007 6.03708 0.838517
385 2 21.2193 21.393 -0.00565827 5.81265 1.68281 5.5214
328 1 22.9683 17.8325 1.47235 3.08897 2.82578 -2.43452
1229 1 24.9808 17.7991 3.17258 0.580478 -3.32538 -0.247587
392 3 26.7314 21.3093 1.80287 0.319139 -0.32438 5.84687
331 2 24.8557 19.6772 1.60232 6.79992 -5.3575 -0.0804548
388 1 23.1279 21.5015 1.56046 3.18934 -2.24821 -3.03578
1226 1 23.3899 19.5368 3.43124 -1.39627 -5.464 -2.0891
1289 1 24.7163 21.578 3.34291 -6.32327 -1.1303 3.83906
326 2 23.299 19.5861 -0.134898 5.65348 0.61015 -1.59399
389 3 24.9466 21.2066 -0.149136 -0.0520915 -2.07246 2.24068
367 1 3.33813 23.2395 1.30505 2.25938 6.85417 6.16581
424 2 1.51405 24.9043 1.54585 5.20563 -1.13002 -3.41809
1262 1 1.49867 23.1262 3.36068 -3.03478 3.65076 -4.61305
1325 2 3.13701 25.0073 3.00058 -4.84739 -1.18008 -4.27019
363 1 -0.176656 23.341 1.59299 0.6008 -5.91737 0.939974
421 2 -0.192171 24.6819 -0.218342 -3.43466 0.872818 5.09532
371 2 6.96238 23.3894 1.31521 4.66014 -0.857436 -6.42501
428 1 5.09549 25.0404 1.36246 3.19477 1.51987 1.0185
1266 3 4.89938 23.1247 2.99382 -3.26903 0.209309 5.73839
1329 3 6.87934 25.3522 2.99343 4.56697 1.3689 2.86633
432 3 8.69685 25.3235 1.31177 0.379237 -3.85566 -4.5511
1270 3 8.57585 23.1559 2.95437 2.88817 -1.33487 4.30001
375 3 10.5941 23.2222 1.38325 -9.06538 -0.560374 6.44117
436 3 12.445 25.0161 1.33052 -2.9493 4.54418 -0.292725
1274 3 12.3914 23.0188 3.20306 4.68822 -8.95438 1.4676
1333 3 10.3589 25.0636 3.04772 6.26034 7.77311 4.86471
379 3 14.1064 23.1992 1.18626 -7.00247 7.10431 -2.63395
440 3 15.7373 24.8324 1.37854 -4.03496 0.279734 -5.65421
1278 3 15.9238 23.4156 3.33539 -6.8692 -0.996107 1.46488
1337 3 14.0396 25.1869 3.28574 7.039 0.146735 -1.69383
383 2 17.4684 22.9856 1.38596 0.20069 3.79187 3.67682
1341 1 17.7252 24.9822 2.96415 -3.04774 2.40604 -0.630181
442 2 19.3717 26.7077 -0.199956 1.21623 0.532213 -3.83969
387 1 21.418 23.2727 1.60223 -2.27094 -0.621074 -1.38379
444 2 19.3617 24.7872 1.32395 -0.573702 -1.00205 -6.07258
1282 1 19.4655 23.4259 3.07148 -7.99819 3.37668 -6.0418
1345 2 21.2904 25.1152 3.38154 0.856512 -4.71729 2.04111
1342 2 19.5434 26.5111 3.02935 -0.372016 0.929998 0.581676
447 1 21.2295 26.4398 1.38344 1.69278 -4.62387 -2.98937
391 3 24.8767 23.2603 1.3433 1.42036 -1.36648 -4.21413
448 1 22.9476 25.0023 1.49895 -0.897997 1.49218 5.1884
1286 2 23.0897 23.633 3.18866 4.12864 -2.05036 4.79194
1349 3 25.0335 24.9286 3.40629 1.93895 3.27678 -3.64089
451 3 24.8679 26.7457 1.52283 -0.394268 2.96972 0.0788313
1350 3 26.4806 26.6899 3.50388 -0.62174 0.749151 -2.35736
452 3 26.5647 24.807 1.36035 2.38275 6.52526 2.45277
386 2 22.9263 23.5258 -0.151826 4.34673 0.0454811 0.249223
907 3 3.47422 1.32349 4.80548 4.56992 -1.23566 0.135592
964 3 1.5886 3.00704 5.19394 2.93064 -3.56359 -1.35011
1802 3 1.65313 1.34519 7.09914 3.38236 0.162429 2.69006
1865 2 3.35621 2.98204 6.77837 -1.04354 -0.137006 -6.4858
1864 2 1.56686 3.02815 8.44044 6.45192 -3.63225 1.41485
1861 3 -0.199755 3.04088 7.10014 3.02697 -1.04189 4.5448
911 1 7.0402 1.65893 4.96298 2.48116 1.11426 -2.95986
968 1 5.0862 3.47059 5.03289 4.2195 2.47195 -2.34526
1806 1 5.34195 1.62288 6.74446 4.11577 -2.98549 -5.28109
1869 1 7.07948 3.35233 6.63643 2.19526 0.775016 -2.82755
1811 3 7.03748 1.52084 8.66096 4.42359 0.493446 1.71652
1872 1 8.68552 3.21085 8.7035 4.19354 1.72662 -2.50169
1868 2 5.21171 3.38315 8.47088 7.59464 4.83566 3.77692
1808 2 4.96795 -0.197268 8.40337 6.20241 -7.27589 7.22387
1810 2 8.9669 1.46477 6.65921 6.79898 -5.1036 -3.89774
972 1 8.9478 3.05302 5.01217 1.35021 -1.1423 -9.73061
915 2 10.5998 1.38666 5.07232 -0.0676991 0.197356 -0.382771
976 3 12.5049 3.34465 5.12205 4.70704 0.534528 -3.67456
1814 1 12.5844 1.34465 6.85117 -2.26921 0.358686 -1.14238
1873 3 10.7375 3.36313 6.80344 0.887626 -3.43362 3.72438
1815 3 10.6421 1.30973 8.58074 -0.489593 -0.231013 1.96938
1876 3 12.1737 3.14983 8.71058 1.76464 -2.46069 -1.67483
916 2 12.5555 -0.151014 5.16435 2.26053 3.94074 -0.655375
919 2 14.3856 1.601 4.7887 1.22666 -6.35073 3.40159
980 1 16.2727 3.20092 5.07917 -1.75815 0.062758 -0.461386
1818 1 16.1342 1.34195 6.8174 -1.72176 1.14374 2.01904
1877 3 14.0122 3.34821 7.11832 -2.55461 0.468464 5.07117
1880 1 15.9205 3.40626 8.73171 3.97442 -5.07143 2.02486
1819 2 14.4387 1.5438 8.54837 -1.3228 1.99962 3.48345
1820 2 16.1822 -0.22707 8.59228 -1.86766 -2.53552 0.846971
1881 2 17.8669 3.36613 6.97772 -6.3394 -1.77302 5.1266
923 2 18.0971 1.43859 5.12079 2.02482 2.40413 -5.55999
924 3 19.6648 -0.258767 4.71487 -4.19701 -5.57858 0.00459134
927 2 21.4436 1.42789 4.86731 3.08463 -0.435063 4.15977
984 3 19.8263 3.30231 4.9395 -0.0466824 2.94586 2.9222
1822 1 19.6097 1.39707 6.76031 0.895907 -6.28136 -4.42994
1885 1 21.2978 3.33252 6.77823 0.958222 4.43804 2.00112
1827 1 21.4991 1.14463 8.42849 -2.67356 4.24504 1.15755
1884 2 19.6077 2.89254 8.54115 3.42639 -0.868582 1.57636
1823 1 17.8807 1.35365 8.49866 1.08127 -3.3917 -10.0502
931 1 24.8954 1.76159 4.87279 -7.65584 7.15787 3.28666
988 3 23.1793 3.52035 5.05036 -3.80943 -0.0157668 3.01949
1826 2 23.0091 1.56897 6.45185 3.12103 5.72173 2.32516
1889 3 25.077 3.4438 6.82382 -5.3938 0.415834 -3.84959
1888 1 22.956 3.10576 8.60211 -1.03611 3.72371 0.810663
1831 1 25.0754 1.68029 8.38962 -5.48831 -4.90396 -0.325893
992 2 26.7044 3.32681 4.76631 2.22767 3.38132 -3.6438
1892 2 26.7618 3.42586 8.53896 7.75792 -6.15789 5.15061
1828 2 23.3305 -0.20547 8.4999 3.41654 -5.78384 0.950047
967 1 3.43366 5.0945 5.11622 0.827394 -8.26535 0.618943
1024 2 1.78266 6.62089 4.67674 0.286289 7.54057 -4.73038
1862 1 1.64369 4.79636 6.76572 0.7951 -4.44307 -1.87354
1925 2 3.32564 6.84478 6.85288 -0.568394 2.82531 1.37262
1924 2 1.70854 6.60488 8.70523 -7.07587 1.0179 1.54706
1922 1 1.71798 8.39145 6.85906 -0.405476 -3.0929 6.17829
1027 2 3.55359 8.58934 5.05326 -1.98749 -1.04278 -0.428978
1927 3 3.31449 8.73718 8.63112 0.611221 7.88805 1.19674
1921 2 -0.126159 6.47031 6.68118 3.14035 -2.41661 0.48855
1867 1 3.26907 4.88084 8.57931 0.0932054 1.80854 0.305347
1023 3 -0.124506 8.29 5.09324 -0.869521 -2.29093 3.55259
963 2 0.0349489 5.09102 4.85399 -2.07719 1.93439 -1.60863
1863 3 -0.206998 4.97363 8.62469 3.37515 9.75192 -2.99954
971 2 7.02648 5.11871 4.70379 0.316146 -5.14178 -1.4443
1028 1 5.2015 6.84607 4.96959 -0.410929 -1.10117 4.40626
1866 2 5.31961 5.25338 7.04266 -1.81631 1.83547 2.21367
1929 3 7.09135 6.78523 6.78089 1.44966 3.30645 -0.526692
1871 1 7.02805 5.04035 8.61798 0.397436 -4.62167 2.37833
1926 2 5.03575 8.62533 6.81249 -2.34465 0.2067 5.58887
1931 3 7.03081 8.56054 8.42107 -0.658403 6.89951 -5.23224
1031 2 6.85183 8.56683 5.24909 3.12359 -8.646 3.88592
1928 1 5.18392 7.04111 8.74289 -2.00673 -1.135 -4.09071
1870 2 8.92397 5.01798 6.56699 2.8311 -2.21608 4.08156
1932 3 8.79969 6.8399 8.5869 -2.22255 -0.0597825 1.0228
1032 1 8.75607 7.00106 5.03382 -6.08832 -0.199202 -4.40875
975 1 10.7488 5.20464 4.95855 -3.56726 -1.04248 -1.86276
1036 2 12.5041 6.8148 4.89575 -5.29233 7.59869 -0.839976
1874 2 12.4595 5.28986 6.64975 -2.43617 -5.69692 -0.216836
1933 1 10.5386 6.79607 6.87365 3.38372 6.17073 -0.247536
1936 2 12.207 6.91547 8.76768 1.11098 -8.87469 9.17131
1935 2 10.5471 8.73678 8.45572 6.66766 5.43892 6.87316
1934 1 12.2797 8.42045 6.56716 -1.58502 -0.33097 4.36131
1875 3 10.3321 5.07827 8.4047 2.11033 -6.0448 -0.946715
979 3 14.3175 5.23265 4.99696 0.0394578 5.90794 -1.73852
1040 1 15.9226 6.857 5.01134 4.28554 -0.653262 -4.16117
1878 1 16.0102 5.0252 6.84707 9.3352 -7.30959 -1.49785
1937 2 14.322 6.93018 6.9161 -4.02664 -0.91899 2.9786
1879 3 14.138 5.16759 8.69176 4.84564 -6.08548 0.0185394
1939 1 14.115 8.67311 8.4523 2.0669 4.76786 -2.29904
1039 1 14.1408 8.59823 4.90103 3.54873 0.873658 -4.60484
1940 1 15.8298 6.97082 8.56801 -1.27943 -3.12214 2.81688
1883 3 17.6607 5.16145 8.64485 -3.79192 -3.04865 -3.8871
1938 3 15.8801 8.61714 6.90597 -6.89588 -1.27115 -3.63878
1941 2 17.7875 7.03489 6.95983 5.48933 -0.40408 3.51122
983 3 17.7564 5.09977 5.07873 -2.27463 -3.89942 10.1754
987 2 21.222 5.08189 5.15842 6.7481 -1.04249 -1.86728
1044 2 19.3622 6.90512 4.78136 -0.0295134 -4.76258 -2.12302
1882 1 19.3621 5.30655 7.0179 -12.1577 4.51452 -2.27602
1945 3 21.4241 6.93687 6.60646 0.184277 8.83693 -4.06853
1944 2 19.5775 7.01739 8.70937 -5.20617 -4.26771 -1.11631
1942 1 19.5068 8.38721 6.53957 -2.3487 0.630781 -10.2301
1047 3 21.4838 8.51375 4.79958 -2.65373 0.0710715 0.536044
1887 2 21.412 5.10582 8.40703 2.76929 -1.21093 -3.24638
1043 1 17.7552 8.57917 4.85548 -2.93147 -0.221705 4.03656
1052 1 26.6337 6.92857 5.15907 2.42675 0.280334 -3.00866
991 2 24.726 5.13377 4.92632 2.28707 7.90657 6.65471
1048 3 23.0532 6.8676 5.00042 7.89358 4.83702 1.11625
1886 1 23.0727 5.09951 6.83847 -1.28781 7.56621 1.04974
1949 3 24.7515 7.12269 6.92837 6.76498 5.89567 9.43146
1948 3 23.1629 6.73892 8.59083 -3.68664 -5.59388 -0.90998
1891 2 24.8048 4.94973 8.7323 3.08146 -0.802722 0.114712
1890 3 26.5357 5.16643 6.68925 2.46978 -6.21076 2.44579
1952 2 26.5375 7.3663 8.61586 -4.42896 -2.58178 3.13446
1946 2 23.2473 8.65797 6.8143 0.980594 3.09042 0.667307
1950 3 26.536 8.7058 6.71196 0.556121 -1.80384 -4.49216
1981 1 -0.197677 10.3197 6.74372 1.34549 1.37733 6.81036
1084 3 1.72241 10.3647 4.96467 -8.86393 -5.38427 -1.34647
1087 3 3.31835 12.2063 5.01651 -1.18573 3.28449 3.39117
1982 3 1.66093 11.9577 7.00285 1.40668 -0.34301 -1.78951
1985 3 3.44272 10.3098 6.89994 1.03363 -1.25961 5.71589
1984 2 1.55373 10.3126 8.58851 -3.48084 3.71657 0.311708
1987 3 3.3626 12.4718 8.47647 -4.74313 -1.77103 -1.66093
1083 3 0.162995 12.242 5.06865 2.36318 0.23656 -0.626934
1983 2 -0.216587 12.0771 8.38184 -2.46516 -4.11375 1.99024
1930 1 8.70413 8.86065 6.63787 5.67293 -7.55756 2.59325
1088 1 5.00616 10.3362 4.73409 2.52408 -4.68155 -3.35754
1091 2 6.73515 12.2481 4.77443 7.36194 0.351723 4.45821
1986 3 4.84693 12.3228 6.66049 8.41793 8.64318 -0.104292
1989 3 6.81688 10.4685 6.73698 0.825326 -2.37809 -0.845066
1991 2 7.08735 12.2539 8.54132 2.44601 0.645484 5.38407
1988 3 5.19779 10.4182 8.52192 0.365778 2.80772 -2.04303
1092 3 8.55448 10.7463 5.00284 -7.6346 0.337473 -12.0217
1992 3 8.7337 10.4502 8.59607 -3.26309 4.8555 4.51262
1990 1 8.76688 12.5332 6.83366 -4.02704 -4.50801 -1.62618
1035 2 10.5805 8.81944 5.07472 3.45675 -5.83225 -1.91571
1095 2 10.5462 12.0716 5.04224 -1.876 -10.095 6.03135
1096 1 12.5557 10.4435 5.17073 -0.461643 -0.920111 -1.09367
1993 2 10.46 10.6782 6.69327 -6.74316 -7.45388 -1.1009
1994 3 12.3801 12.445 6.47589 2.20919 5.30764 -3.18112
1996 3 12.394 10.6493 8.62157 -0.375186 -3.4286 -3.26026
1995 1 10.3216 12.5776 8.43403 -0.866974 1.8846 4.62098
1099 1 14.1528 12.12 4.97974 -0.0294421 1.1838 -0.533234
1100 2 15.7779 10.4888 4.88955 3.92421 -1.26331 -2.20209
1997 3 14.2626 10.5553 6.98989 -1.35137 8.16445 -0.361634
1998 3 16.3047 12.1445 6.81469 2.70081 4.60018 3.30459
1999 3 14.3178 12.2477 8.60248 -6.23408 -4.61747 -3.33216
1103 2 17.6138 12.2073 4.64748 5.61853 -2.91779 6.96727
2003 2 17.6902 11.8518 8.70925 2.51617 2.80406 -2.44377
2000 1 16.1334 10.3717 8.70383 -1.49421 -10.8675 -8.28637
1943 2 17.9052 8.78057 8.52254 -1.55225 -2.62127 -0.60346
1947 3 21.5249 8.84296 8.55936 -0.293604 -4.47433 7.90957
2001 1 17.7558 10.2215 6.73937 -4.82265 2.69857 1.17143
1104 2 19.2454 10.5378 4.95695 0.210576 -0.697576 0.552979
1107 3 21.3478 12.0462 4.92256 3.93438 -3.12132 6.94093
2002 1 19.3436 12.0873 6.76778 1.25995 1.36002 4.42592
2005 3 21.3532 10.2126 6.49972 0.533746 -3.72336 2.83636
2007 3 21.283 12.0561 8.41085 -0.809248 4.12304 2.65404
2004 3 19.5767 10.3453 8.52806 -1.90185 -0.955926 -1.26365
1951 1 24.9281 9.18038 8.70427 -0.951026 3.23337 -1.09278
1051 1 25.0698 8.8929 5.03045 2.18905 -5.31286 5.01404
1108 3 23.1668 10.2556 4.85799 -2.78944 -4.397 -0.878352
1111 1 24.94 12.0133 4.86427 -1.71844 -0.775091 -1.89855
2006 3 23.3582 12.0717 6.74029 -4.57986 4.8627 3.43805
2009 3 25.0918 10.6054 6.75033 -2.81776 0.708212 -1.58263
2011 2 24.8721 12.0852 8.47621 -8.09569 0.953661 0.145822
2008 3 23.0813 10.5576 8.6805 -4.96689 -0.0961271 -3.99827
2012 1 26.6952 10.8335 8.50518 -3.40658 -1.66655 5.20037
2041 2 -0.0200241 14.1095 6.61466 -0.623583 -4.45978 -3.88338
1144 1 1.47943 14.0466 4.94588 -5.48202 1.52995 2.32215
1147 3 3.58009 15.8412 5.0065 -8.21641 0.100255 -2.48232
2042 3 1.81471 15.8561 6.70591 -2.76869 -4.74895 4.01437
2045 3 3.28356 14.0894 6.56513 4.63384 0.67122 -0.188598
2047 1 3.43275 15.9596 8.49865 1.3646 -2.53767 -6.54596
2044 3 1.33932 13.9633 8.37675 1.87906 6.00695 -3.04102
2105 1 3.28919 17.5815 6.79889 2.26764 5.41109 -0.374588
1143 1 -0.0195227 15.8834 4.95473 2.99764 -1.20438 4.02862
1148 3 5.21416 13.9569 4.95873 4.21213 -2.78492 0.670063
1151 3 6.8702 15.9387 4.84834 3.23936 -10.6111 8.60687
2046 2 5.09212 15.9874 6.72754 1.47021 -3.8384 2.20697
2049 3 6.83425 14.1343 6.65899 -3.40422 -0.335369 -1.86597
2051 2 7.07129 15.8886 8.49122 7.40632 4.6077 5.27636
2050 3 8.67748 15.8988 6.7078 0.444906 2.54152 1.94215
2048 1 5.467 14.0848 8.45 2.48202 6.5001 -5.44195
1152 3 8.46771 14.1983 4.88805 1.48745 -0.290262 -6.23252
2052 2 8.73158 14.2142 8.22326 -3.35593 6.47957 1.07101
2112 2 8.90006 17.5929 8.37749 7.16328 0.301995 4.27679
1155 2 10.7906 16.2406 5.02858 -1.59785 -4.25981 -0.658578
1156 2 12.2722 14.2822 4.95921 -0.219634 -7.33923 3.01799
2053 3 10.4983 14.1224 6.57503 -4.62581 -4.9185 -0.521616
2054 3 12.6214 15.8461 6.6676 0.33491 -0.774071 1.68237
2056 3 12.4318 14.0132 8.40926 0.523312 -7.37198 0.549626
2055 2 10.6873 15.9985 8.29382 1.20536 1.21047 -0.543245
2116 2 12.0243 17.66 8.39325 -1.54716 -0.228151 3.73045
1159 1 14.4433 15.8095 5.02357 -5.78844 6.76545 0.0138762
1160 1 15.8039 13.8703 4.88649 -4.25329 -1.60426 3.3413
2057 2 14.2271 14.1659 6.49324 1.83489 -0.425291 -5.03788
2058 3 15.9519 15.6877 6.85098 2.69503 -1.13912 3.02476
2059 3 14.2564 15.7231 8.64638 -3.06623 0.34578 -3.36693
2060 1 15.9937 13.9455 8.66526 -3.98824 1.71438 -4.87343
1220 2 15.9575 17.5937 5.01018 -0.670024 5.05886 -1.28665
2117 3 14.2004 17.5309 6.98942 0.700449 -5.39813 -0.0624248
1163 2 17.714 15.6105 4.85784 4.90022 -3.24763 8.01332
2061 2 17.5928 14.0908 6.74228 1.42695 2.3011 6.40052
2063 3 17.6549 15.6599 8.64321 -1.26688 0.785356 -0.123397
2121 1 17.9051 17.7395 6.70546 -1.86717 1.83892 0.366015
1164 1 19.4583 13.9149 4.96798 -0.688933 1.05007 1.3945
1167 3 21.2338 15.5242 4.91368 -0.142857 -5.69017 -3.08257
2062 1 19.3687 15.8823 6.64408 -2.00722 2.70444 1.98466
2065 2 21.1466 13.9592 6.76266 1.25623 3.27631 0.571554
2067 2 21.0633 15.7017 8.55359 -1.27391 0.825456 3.63215
2064 1 19.3971 13.952 8.35259 -4.35458 4.8211 -1.27477
2124 3 19.3721 17.7287 8.69292 -5.83157 0.633929 3.62335
1224 2 19.4623 17.477 4.86819 7.46699 0.853803 4.13014
2125 1 21.2355 17.5351 6.79973 0.581998 -2.36824 0.579048
2070 3 26.5518 15.9023 6.80986 0.599942 -0.680101 3.45974
1172 2 26.3319 14.0734 5.05964 -0.489074 -0.374193 1.80228
1168 3 23.1996 13.929 5.07961 -4.54892 0.0116459 2.05725
1171 2 24.8368 15.7607 5.04213 3.79085 -5.03007 1.02085
2066 1 23.0703 15.9495 6.93981 -3.62126 -5.62631 -0.16678
2069 3 24.8365 14.0694 7.04782 -5.05415 -1.23891 1.95282
2071 2 24.8666 15.9278 8.50379 -3.21652 4.91851 0.121999
2068 3 23.109 13.9131 8.55151 10.7634 4.37807 -3.02032
1232 1 26.5547 17.6372 4.87194 -0.256287 -1.23198 5.40774
1228 2 23.1451 17.4805 5.07419 -6.19894 2.77291 9.62846
2129 1 24.9689 17.6576 6.71795 -4.42843 3.46098 -0.673349
2128 2 23.0786 17.6942 8.45127 2.20301 -2.85909 -3.86122
2101 2 -0.0454002 17.7767 6.92104 0.0236114 -2.00895 2.60464
1204 2 1.64113 17.7731 5.02454 2.8366 -2.95566 0.171123
1207 3 3.11937 19.5036 5.08063 -3.21511 1.11132 -0.520751
1264 3 1.57653 21.374 5.07988 -2.1018 2.6299 -5.58923
2102 1 1.51016 19.4771 6.99171 3.34903 7.98364 -7.53238
2165 3 3.52974 21.4377 6.80529 -3.64403 1.23291 4.08291
1203 2 -0.239443 19.3393 5.16135 0.264862 2.92967 0.817582
2164 1 1.74616 21.3863 8.47532 7.47709 1.36564 -2.14276
2107 1 3.35355 19.573 8.29269 0.156145 2.92657 -0.904038
2161 3 -0.138056 21.3982 6.59374 5.35403 -1.45819 -2.73022
2104 2 1.6958 17.8613 8.6613 -7.56239 3.11394 -6.38517
2109 1 7.11524 17.7923 6.75051 4.22248 4.19059 -1.87262
2108 2 5.13966 17.8361 8.54787 -4.34457 -1.85191 5.74412
1208 3 5.20397 17.9083 4.9991 3.27065 -4.72626 1.29284
1211 3 6.96554 19.6707 4.7317 -0.671052 -3.14671 -3.05884
1268 1 5.17216 21.205 5.09696 1.1438 0.19771 -0.314695
2106 2 5.34896 19.3921 6.89653 -1.60374 10.2288 1.46656
2169 2 6.90011 21.3692 6.75808 5.92344 -5.98874 -3.1296
2111 1 7.20864 19.5006 8.3337 -3.5916 0.692844 2.51661
1272 3 8.59828 21.6538 4.76657 -3.98845 -3.5811 4.45071
1212 2 8.33245 17.7644 4.73576 -6.41737 0.764138 1.68277
2172 2 8.61966 21.6929 8.25465 -2.52644 6.35634 3.76069
2110 2 8.72697 19.6464 6.46571 -4.22533 1.25108 5.7256
1216 2 12.5185 17.7838 5.00401 -10.6414 4.66787 0.437933
2113 1 10.3084 17.8622 6.40785 3.99282 -4.08583 -2.31127
1215 3 10.6204 19.6023 4.58182 1.53295 3.05895 -5.81661
1276 3 12.5238 21.3708 4.93185 -3.92583 4.51819 6.85506
2114 2 12.4511 19.4272 6.83793 1.93784 -1.71259 -3.73133
2173 3 10.663 21.3733 6.57361 -6.54118 -4.21386 -4.82755
2115 1 10.4469 19.3555 8.40688 4.44588 -3.5201 5.81004
2176 1 12.4242 21.3305 8.44837 3.41352 -1.32117 -5.06038
2120 2 16.1795 17.8163 8.28075 -5.6157 -7.09936 -2.34889
1219 1 14.2174 19.3207 4.87796 -7.16267 3.37049 3.81805
1280 3 16.0046 21.1952 5.02477 0.73282 4.00243 0.946559
2118 2 16.1173 19.2883 6.81331 0.346497 2.1148 0.882952
2177 1 14.3235 20.9565 6.80896 -0.662729 8.35174 8.27232
2180 1 15.8906 21.3042 8.29445 -0.224142 0.301181 -0.92513
2119 1 13.8703 19.4161 8.58153 0.944855 4.38966 9.369
1223 1 17.7605 19.6972 5.21162 6.72933 2.59992 -0.829451
2123 1 17.7807 19.6765 8.49102 5.76401 2.45643 3.68333
2181 3 17.8071 21.5188 6.84325 1.70084 6.49774 1.21118
1227 1 21.2559 19.3058 4.97863 -5.01387 2.35816 -2.39904
1284 3 19.588 21.3748 4.98202 4.1083 0.810691 -0.554081
2122 2 19.4124 19.5195 6.80679 4.3188 -6.97209 3.65132
2185 2 21.2554 21.3391 6.6362 -0.552832 -2.76294 -0.127312
2127 1 21.4517 19.5377 8.43633 5.43849 4.86 -2.92158
2184 2 19.6828 21.2835 8.72134 0.111402 -1.38457 0.469452
1292 2 26.7413 21.2356 4.76755 -3.87955 -1.59209 -1.02996
1231 2 25.0814 19.5868 5.0868 -8.07225 -3.88545 4.34613
1288 2 23.1407 21.699 4.96654 3.45139 -1.29065 -0.441509
2126 1 23.1944 19.5186 6.47951 6.30676 2.4167 -5.14957
2189 1 24.8238 21.4696 6.83131 -5.30452 5.40052 3.34705
2131 2 24.6718 19.5664 8.33609 -5.46865 1.68006 -3.18574
2188 3 23.013 21.3313 8.61462 -2.70258 -3.44944 -3.80808
2130 1 26.4827 19.8819 6.94161 -6.47223 0.89965 -3.87805
1267 3 3.42438 23.0496 5.04325 -7.4847 0.796213 -3.68476
1324 1 1.55916 25.17 5.05725 -3.04041 -9.87306 -9.31677
2162 1 1.6322 23.3722 6.81236 3.17727 0.120229 -0.295804
2225 1 3.34731 25.0226 7.03635 1.71267 -6.20873 -4.03151
1263 3 -0.237328 23.131 5.12022 -0.530023 -1.67751 -4.71788
2224 2 1.6757 24.9211 8.61538 -1.15846 0.27245 7.47407