ITEM: TIMESTEP
169800
ITEM: NUMBER OF ATOMS
13500
ITEM: BOX BOUNDS pp pp pp
-2.5088926087164509e-01 5.3770889260848534e+01
-2.5088926087164509e-01 5.3770889260848534e+01
-2.5088926087164509e-01 5.3770889260848534e+01
ITEM: ATOMS id type x y z vx vy vz
7 1 3.49165 1.24658 1.20826 -2.25674 -1.06799 -3.49252
64 3 1.59131 3.17486 1.17044 0.277386 -0.811786 2.08831
902 1 1.9287 0.960115 2.75404 -0.398043 5.51594 4.54837
965 2 3.39184 3.06843 2.64068 3.35313 0.961807 5.87837
961 3 -0.153198 3.01672 2.88551 5.93657 3.76648 -5.61933
11 1 6.97298 1.01373 0.964012 7.71685 0.387294 0.917491
68 1 5.26155 2.81981 1.06266 -5.04984 7.18035 -7.15824
906 2 5.10198 0.94952 2.85775 -3.35716 -0.245374 -0.0402679
969 3 6.92711 2.78064 3.04613 -0.80499 3.31488 -4.87269
910 2 8.72163 1.10936 2.81038 5.48784 1.38612 -4.30618
72 1 8.49586 3.18994 1.19675 1.79352 8.1899 3.40401
15 2 10.3046 0.995318 1.05005 -4.63354 0.667678 0.74352
76 3 12.2068 2.83773 0.987267 -3.74588 -6.60984 -5.59149
914 2 12.6172 1.05782 2.97829 0.592739 -0.524387 -0.41546
973 3 10.4624 2.9729 2.84892 -0.821713 -1.96561 -1.76945
19 3 14.2254 1.32682 1.02726 -3.1537 -3.91058 -5.88383
80 3 16.0202 2.92869 0.938093 -8.13905 6.17258 0.985059
918 3 16.0972 1.17124 2.66667 2.51704 4.78881 4.81997
977 1 14.203 2.98086 2.77619 0.925977 1.15441 0.0917558
981 3 17.5577 2.90967 2.8372 4.01683 0.609369 -3.35461
23 3 17.8445 1.09771 0.892331 0.469515 2.83071 -0.641144
27 2 21.3593 0.909729 1.21092 -1.17624 -1.87738 -2.0761
84 3 19.4926 3.27998 0.871826 -3.78369 2.86456 -0.291361
922 3 19.5315 1.04508 3.07893 -0.984138 3.17727 0.537118
985 2 21.127 2.80949 3.02179 2.63097 11.5391 -1.07407
31 2 24.7328 0.978891 1.12225 2.47484 5.43699 6.41997
88 3 23.2446 2.84985 1.52665 7.10515 3.35242 10.6508
926 2 22.9978 1.10805 2.97155 -0.948714 0.906434 3.2146
989 3 25.0754 2.88521 3.13149 1.10311 -0.240369 -7.53552
92 1 26.6746 2.73869 1.18377 -5.85931 -7.70046 1.17611
67 2 3.60046 4.7626 1.16354 -1.24916 0.0651956 4.25958
124 2 1.43569 6.67362 1.31435 7.74308 2.32501 3.48783
962 1 1.63504 5.16341 2.90986 -2.16717 -4.8 2.70843
1025 1 3.62024 6.67809 2.94836 -6.80586 -2.04147 0.734206
127 3 3.53917 8.32908 0.946972 0.328311 4.31297 4.31722
63 3 -0.174645 4.80938 1.20745 0.662015 0.539791 2.71205
1021 1 -0.167051 6.69194 2.86313 -4.48049 -6.7912 2.8677
1022 3 1.80474 8.41583 3.0104 -1.89223 -1.48234 -0.816478
123 2 -0.194536 8.62899 1.33116 1.87383 0.706424 4.23036
71 2 6.93698 4.94063 1.09169 -2.7424 2.39051 1.08354
128 1 5.42585 6.61825 1.23005 0.217145 -3.99567 -2.29873
966 1 5.54481 4.5932 2.80364 -3.65372 -3.80956 1.78063
1029 3 6.98341 6.6193 2.82804 3.96273 2.61942 7.57429
1026 2 5.34282 8.36879 3.00866 -6.23775 2.92736 0.598813
131 3 7.11638 8.59505 0.994179 2.76434 7.87582 1.81657
1030 2 8.82021 8.27327 3.08764 3.60185 -2.94394 2.59207
970 2 8.79035 4.8116 2.89116 -4.91731 4.5037 3.31041
132 1 8.85763 6.5007 1.17626 2.88024 0.604571 -1.3006
75 2 10.6715 4.74211 1.12683 5.38653 -1.82206 4.17706
136 3 12.4729 6.33152 1.1934 0.138932 0.755292 2.84819
974 1 12.6042 4.66507 3.21829 -6.58131 -1.46328 0.367467
1033 1 10.7952 6.45966 3.13229 3.85135 -2.64204 2.81635
135 1 10.3981 8.18796 1.06925 2.94935 -8.38434 -0.869191
1034 3 12.511 8.33983 2.5755 3.02375 2.60825 1.88114
79 2 14.11 4.59179 1.01438 -3.14797 0.711674 8.41436
140 2 15.9417 6.57775 0.826088 -3.30053 -0.193154 -0.387531
978 3 15.9022 4.60208 3.00168 4.76652 7.42436 5.79172
1037 3 14.2508 6.62262 2.80538 9.36313 5.21562 -1.27119
1038 3 16.1241 8.46489 2.63427 2.17387 -2.19745 -4.08467
139 2 14.1385 8.69436 0.816876 5.11399 0.217914 3.39687
1041 1 17.6402 6.56798 2.86877 5.14446 3.36296 -4.19957
83 3 17.8223 4.97156 1.41007 -0.931352 6.39701 4.02344
143 2 17.7807 8.235 0.877174 -2.74595 -2.77138 8.06634
982 1 19.5846 4.5162 2.84789 -4.397 -4.00493 0.317405
87 1 21.4389 4.74668 1.21912 2.64011 3.00656 0.885308
144 1 19.5491 6.62475 1.0079 1.44955 -1.46595 1.25815
1045 1 21.2503 6.56204 2.84369 -7.22071 2.79642 3.80858
1042 1 19.4855 8.4615 2.94351 -1.79619 2.26063 -9.96031
147 2 21.5373 8.5357 1.3693 -0.899384 3.46493 -4.69536
91 1 24.8372 4.6551 1.12257 0.97437 1.1575 1.59779
148 1 23.1319 6.62354 1.37841 -0.222179 -7.02952 4.20694
986 2 23.0441 4.54079 2.97321 5.56755 -12.7056 -2.61891
1049 1 24.9839 6.4097 3.06191 4.37276 9.368 4.80296
151 2 25.0081 8.242 1.00221 1.80849 -0.696375 0.552627
1046 2 23.1329 8.20874 3.06701 -2.49688 5.41021 -0.341415
152 1 26.6254 6.55537 1.25374 -3.83536 3.28643 -2.73298
184 3 1.56852 10.3488 1.23419 1.7705 -3.29869 -5.17456
187 3 3.61196 12.0631 1.32864 -8.50717 0.0719244 2.99249
1082 1 1.67448 12.0922 3.17492 -1.41754 -2.40189 3.81385
1085 3 3.31573 10.2013 2.90193 0.64114 0.526637 0.857133
1081 1 -0.100953 10.2 3.08829 -0.875377 0.650321 4.3542
188 3 5.25931 10.2429 1.12543 2.45148 -4.77058 6.28127
191 2 6.89328 12.022 1.32752 -4.1819 -0.0408448 1.30759
1086 2 5.10481 12.0749 2.89304 -3.60803 0.629373 -2.28055
1089 1 6.92067 10.0974 2.83358 -3.93895 -2.77173 4.23746
1090 1 8.70316 11.9345 2.68785 -6.13503 5.37979 7.59209
192 2 8.74838 10.1763 1.27216 -7.39991 -3.07898 6.44496
195 3 10.5604 11.9178 1.02398 -3.12624 0.11438 -3.77002
196 3 11.9346 10.2764 1.0294 -1.02524 -1.31202 2.79363
1093 3 10.8065 10.2397 3.12001 0.39883 -0.353941 1.62931
1094 3 12.2744 12.0721 2.77982 -3.14178 2.01763 2.6597
199 3 13.9624 12.1229 1.08887 2.47751 -1.13276 1.68394
200 2 15.7686 10.5217 0.980504 -1.39408 -7.7413 1.72713
1097 3 13.9689 10.3777 2.93897 -4.30407 -4.4373 2.41599
1098 1 15.9813 11.9352 2.79033 -1.12263 -0.45138 1.67198
203 1 17.953 12.117 1.04931 3.99134 0.939425 -0.961747
1101 2 17.7628 10.652 2.81881 -1.53222 -1.035 -3.70813
204 3 19.5729 10.3553 1.22023 -0.806904 -1.49336 6.60767
207 3 21.5458 11.8477 1.32661 -1.61058 0.603509 -2.28058
1102 2 19.8194 11.988 3.06826 1.74509 2.2068 0.0248281
1105 2 21.4042 10.2735 2.98942 -1.07681 3.51414 -6.57588
208 1 23.5404 10.0347 1.50163 2.66049 3.3819 -0.653744
211 2 25.2497 12.0501 1.29761 2.79711 -8.50594 -0.116056
1106 3 23.3697 12.0174 3.2288 -1.40605 -0.893209 3.19643
1109 2 25.0657 10.1078 3.14186 -2.54061 -0.875458 -11.5894
212 1 26.6559 9.97145 1.23491 3.19849 -2.76703 -4.22523
244 3 1.32063 14.0184 1.3615 -3.96745 0.462459 -1.73868
247 2 3.5765 15.7365 1.22704 -3.04967 6.83766 -2.59039
1142 2 1.36709 15.4953 3.09219 -0.668014 -0.893229 -1.60787
1145 3 3.40546 13.8668 2.87095 5.31257 7.19534 7.30252
304 2 1.45593 17.3239 1.09666 -0.452677 -2.547 -2.17354
1205 1 3.17506 17.2445 3.03596 -2.71384 1.55604 5.00913
1149 1 7.11487 13.873 2.82758 6.57219 8.73913 0.774306
248 3 5.07891 14.0428 1.21935 0.277452 -3.74473 -4.11529
251 1 7.0121 15.6095 1.29317 5.63382 -3.53267 -1.08256
1146 2 5.31621 15.5452 2.99979 -8.04846 6.02611 4.36441
308 2 5.30326 17.4308 1.41966 -0.0626526 1.19445 3.93485
1209 1 7.07622 17.2028 3.11479 -6.82782 -0.0612004 -5.15639
1150 3 8.89825 15.5058 3.17883 5.27062 -1.57112 1.71753
252 2 8.93809 14.0175 1.06036 0.135379 -2.30351 0.347413
312 2 8.75472 17.3058 1.40452 -4.01899 1.09528 -0.511526
255 3 10.6778 15.6894 1.24503 0.405834 2.07277 6.83478
256 1 12.3122 13.9131 1.00231 -1.12539 -1.07522 -3.98734
1153 3 10.4832 13.8449 3.14346 -0.442069 -4.55117 0.771684
1154 3 12.2155 15.6899 3.27883 5.57019 3.44316 0.607467
316 3 12.2162 17.4835 1.01105 -0.902308 2.87021 1.45706
1213 1 10.4953 17.4548 2.94869 2.17418 -3.29162 0.983506
1157 3 13.8397 13.9195 2.97242 0.76559 4.62877 -8.83831
259 3 14.0991 15.5091 1.0278 -4.83935 -3.08617 -0.597809
260 3 15.8003 13.7467 1.19714 -1.68717 1.11531 1.11181
1158 3 15.7656 15.5727 2.73584 -0.291857 -2.38062 2.98769
320 2 15.7555 17.2613 1.10028 3.02844 -2.50026 -2.30886
1217 2 13.9059 17.3789 3.02554 -0.0841987 0.52231 3.76182
263 1 17.5619 15.6464 1.00201 5.1203 -1.23837 0.212382
1221 2 17.6824 17.5303 2.96103 -4.64077 -1.38946 1.38463
1161 2 17.8989 13.7398 3.209 -3.02155 -7.34098 8.26489
264 1 19.56 13.6268 1.13724 -4.26552 -2.91792 2.254
267 2 21.2699 15.6121 1.19834 8.73769 3.99766 0.403848
1162 1 19.2271 15.4685 2.8447 -3.44769 -5.06103 0.207411
1165 3 21.2522 14.1623 3.04464 -4.91735 -8.09993 -0.37691
324 1 19.3486 17.3222 1.20395 -8.06207 -0.818888 -2.36215
1225 2 21.2233 17.5841 2.89958 2.69445 -1.90471 -0.593605
268 1 23.3732 13.9777 1.14985 -0.585081 -8.36378 -0.615
271 2 25.2469 15.8059 1.32639 2.16361 -6.84117 -1.17307
1166 1 23.1114 15.642 2.98262 3.18289 -0.719452 0.792923
1169 2 25.0136 13.9539 2.92361 3.56922 -2.44398 3.91355
1229 2 24.8461 17.4635 3.01837 -0.191252 -2.5951 0.301621
328 1 23.4397 17.5651 1.27406 0.379047 3.344 3.57876
332 1 26.7235 17.4655 1.1946 3.43036 0.0491411 5.26031
272 1 26.6778 13.8593 1.1979 -3.24847 -9.17222 6.04284
307 2 3.25984 19.1384 1.08872 2.29642 1.83864 -2.59571
364 2 1.57152 21.1238 1.26123 2.85384 -2.1484 -0.280984
1202 1 1.86858 19.2083 3.0048 0.7391 3.52106 3.10254
1265 1 3.36086 21.0877 2.94905 1.83531 -2.71844 -6.89506
1261 3 -0.247481 20.8215 3.00826 -2.26215 -4.78789 3.49725
311 3 7.02544 19.1651 1.22121 -3.22505 -3.80963 1.39714
368 1 5.11411 21.0857 1.3252 3.13358 -1.49039 6.87175
1206 2 5.28869 19.1339 2.92553 0.621012 2.51154 4.45113
1269 1 6.96968 20.9466 3.0199 -2.29395 5.26089 -2.5649
1210 1 8.72779 19.1687 2.97609 -4.40964 -2.7662 1.78155
372 2 8.91124 21.132 1.15159 -2.09899 -1.38589 3.2228
315 2 10.3823 19.2801 1.12461 -2.03957 3.17023 -2.69005
376 1 12.0637 20.8077 1.28056 4.14675 -4.79434 2.13077
1214 2 12.2791 19.1829 2.8621 3.8449 1.09954 -0.86939
1273 1 10.2784 21.0454 2.91344 -0.119369 1.34003 3.77402
319 2 14.0638 19.3465 1.17183 0.962265 2.5707 -5.07025
380 2 15.9762 20.9913 1.31611 0.0947339 -2.71632 -0.936201
1218 1 15.7794 19.1975 3.11345 10.685 0.445986 -0.607419
1277 3 14.1436 21.0372 2.70156 -2.0025 1.71065 -1.41557
323 1 17.5093 19.1412 1.23475 -1.63147 -0.715835 0.732909
1281 2 17.8355 21.114 3.06114 -3.63407 2.43432 -2.86259
327 2 21.1319 19.295 1.18495 0.922211 -5.81599 0.157356
384 1 19.4385 20.911 1.42545 0.590259 -3.22668 5.57508
1222 2 19.3585 19.3326 3.09674 -0.924621 2.38727 5.65634
1285 2 21.1562 21.1344 3.12098 4.92734 0.541218 -0.0373065
331 2 24.9908 19.1575 1.17935 0.261735 -1.86841 -1.39079
388 1 23.1613 20.8 1.34943 3.95671 -0.122518 -7.27109
1226 1 23.1861 19.3028 2.98206 0.944483 -5.06933 -2.10061
1289 2 24.6931 21.286 2.91957 2.77463 -1.76948 4.70523
1230 3 26.611 19.4272 2.87805 5.41275 1.92631 -4.28616
367 2 3.28848 22.8601 1.30195 3.88837 2.95157 1.45069
424 2 1.32045 24.8926 0.926888 -1.65723 -2.83488 -5.64644
1262 3 1.54422 22.967 2.67269 -4.77104 -1.89966 -2.78606
1325 1 3.17926 24.8403 3.17305 3.32706 5.91284 4.96437
427 1 3.39093 26.27 1.01764 -4.94788 0.911789 -2.34165
1322 3 1.2128 26.6324 3.01172 0.278462 0.267508 0.571111
363 1 -0.169185 22.8368 0.942494 -0.679862 0.634542 6.8773
371 1 6.91877 22.7652 1.14889 2.3005 -3.92578 -3.08969
428 3 5.28787 24.6737 1.24092 -3.32161 -1.50614 2.5647
1266 2 5.03038 23.0869 3.0163 1.04766 4.5179 -1.5729
1329 1 7.06744 24.762 2.81803 1.56462 -3.09196 -3.4354
431 3 6.9066 26.4881 1.34729 -0.262503 1.08138 -2.74483
1326 2 5.00992 26.3057 2.85611 9.65764 3.95291 5.08524
1330 3 8.94022 26.7166 2.94773 1.17077 5.75354 1.72164
1270 1 8.95555 23.0433 2.94455 -2.99856 -0.543157 -2.73777
432 2 8.78487 24.7379 0.989169 -0.424855 0.657444 -3.29791
375 2 10.6552 22.6986 0.971053 4.24186 -5.0369 -1.54248
436 3 12.2915 24.6166 1.01615 0.101341 2.77999 5.86507
1274 2 12.1488 22.7288 2.86325 0.415132 1.84382 -1.03719
1333 3 10.6721 24.7017 2.806 -1.86937 0.0939673 -1.66019
1334 2 12.2479 26.6004 3.0515 0.472524 -8.72956 4.51957
435 1 10.598 26.5299 1.20871 -0.338486 1.00673 1.84675
379 3 13.995 22.9185 1.08795 -4.96535 -2.20461 0.590756
440 2 15.7041 25.0394 0.978764 -1.39112 -0.86997 -0.504181
1278 1 15.9679 23.0588 2.93261 0.136668 -3.71591 -1.3171
1337 1 13.9529 24.4986 2.81057 2.95419 -2.34382 1.85805
439 2 13.9138 26.4974 1.27281 -1.71411 -0.452507 -2.41896
1338 1 15.8815 26.423 3.17891 -1.78018 -3.89011 5.05155
383 1 17.6906 22.8206 1.12029 -2.49992 1.26564 -0.121662
443 1 17.6137 26.5626 1.02343 4.27862 3.07847 -4.39785
1341 3 17.7858 24.7752 2.81701 -0.502421 0.510108 3.74644
387 3 21.1179 22.7563 1.20462 4.83737 5.8528 0.0106245
444 2 19.6026 24.7768 1.18052 3.1271 5.04827 -4.10155
1282 3 19.3408 22.9711 3.14043 1.98258 2.78447 4.27648
1345 3 21.4034 24.8902 2.73084 -1.81333 -1.88869 4.82456
1342 1 19.5375 26.5801 2.72479 -5.1379 -0.673761 -2.45642
391 3 25.0362 22.9209 1.0768 -1.03924 6.16123 6.14215
448 1 23.2975 24.8301 1.12889 3.42434 -1.3007 4.6076
1286 3 22.7724 22.9921 2.98425 3.52573 0.182069 -2.0067
1349 2 24.9525 24.6831 3.01633 2.49003 1.56103 -3.61061
1346 1 23.3815 26.5758 2.90176 -4.70245 -1.91897 -2.24105
451 3 24.9063 26.5109 1.02783 2.09744 -2.23487 3.37225
1350 1 26.6215 26.3766 2.97692 0.192774 0.230287 -1.00054
907 1 3.5027 1.11328 4.67608 5.25537 -2.18386 -0.191718
964 2 1.81143 2.93045 4.61564 -1.06452 -0.806816 -3.30499
1802 1 1.62664 1.05537 6.70882 -2.05415 -3.33775 -0.717144
1865 2 3.393 2.97516 6.68641 1.02984 -3.31288 -6.29081
1807 2 3.40798 1.04815 8.59373 -4.99442 -1.28942 3.79202
1864 1 1.65309 2.89083 8.38057 1.79937 -5.00376 2.87766
1803 2 -0.0586359 1.23402 8.43155 -2.74371 3.99352 0.243815
903 3 0.216495 1.23864 4.68282 2.39086 -0.213201 9.9211
1861 1 0.127382 2.80009 6.55569 -1.39151 6.8092 -0.238196
911 1 7.09003 0.902369 5.09115 -10.6368 2.35629 4.76545
968 3 5.06895 2.80004 4.5629 -1.26083 0.668368 -4.53344
1806 3 5.25231 1.24571 6.61249 -0.646469 3.9055 1.79581
1869 3 7.01847 3.03822 6.41919 4.43352 5.94737 2.66077
1868 3 5.27971 3.04452 8.20096 -1.16866 0.298672 5.01098
1811 1 6.90151 1.12045 8.16979 -3.58177 -2.44226 -2.7225
1872 3 8.71504 2.97368 8.05867 3.34617 -0.267986 -4.32153
1810 3 8.91881 1.10746 6.50487 -2.67328 -1.31773 -5.16915
972 3 8.89101 2.59782 4.64998 1.50231 -1.7429 0.941549
915 3 10.7363 1.15376 4.51942 4.22556 3.76831 1.25643
976 1 12.3873 2.95965 4.77099 -3.96894 -1.66718 1.10113
1814 2 12.4478 0.742681 6.47902 5.6515 -1.29007 4.03636
1873 3 10.4994 3.16989 6.45347 -3.26763 1.98774 2.58031
1815 1 10.4878 1.24737 8.34476 1.07887 2.96699 0.958979
1876 1 12.6434 2.87251 8.3519 3.69883 -3.45963 6.79104
919 1 14.1725 1.25333 4.69055 -0.881769 1.10966 -4.42814
980 3 15.968 2.81755 4.57263 0.550499 -0.91316 2.61409
1818 1 15.7953 1.34582 6.59567 -5.68226 -6.12487 -2.45013
1877 2 14.2728 3.15697 6.54091 3.08994 6.75668 -1.38705
1880 2 15.9098 2.99486 8.30514 -4.24943 -1.67179 -4.0416
1819 1 14.1939 0.905347 8.39046 0.149561 3.91002 -1.54587
1881 2 17.6935 3.07391 6.5579 7.76382 -0.429354 0.537534
1823 1 17.3773 1.24954 8.46897 -1.65072 6.55064 -0.0861856
923 3 17.7249 0.931073 4.87517 -1.61318 -0.735911 -6.36561
927 1 21.2485 1.50137 5.06478 -3.70682 7.26172 5.50068
984 1 19.312 2.91526 4.70284 -0.333335 -1.12084 -2.1709
1822 2 19.3805 1.01819 6.68955 8.38015 -1.15897 6.23161
1885 2 21.1082 3.12348 6.29815 2.57031 -0.0871802 -4.59712
1827 3 21.3475 1.37437 8.41987 1.03247 5.87201 -1.18897
1884 3 19.5388 2.89193 8.32366 -1.9036 0.519697 0.791586
931 3 25.016 0.923428 4.60039 1.16737 2.8731 1.40105
988 1 23.0346 2.98964 4.62064 -3.01192 3.90941 2.38291
1826 3 22.9478 1.16431 6.62577 8.37 -4.03626 1.55269
1889 2 24.8008 2.73833 6.30046 9.33036 0.610364 0.889432
1888 3 23.1723 2.90498 8.18229 3.98081 1.26818 -0.49382
1831 1 25.0324 1.11604 8.27055 -0.682844 -2.28947 -0.105568
967 1 3.40942 4.78463 4.36927 -3.14713 5.89418 -0.52762
1024 2 1.7058 6.1511 4.74001 2.59402 -6.19509 1.29126
1862 1 1.69978 4.71823 6.51913 -2.10157 -3.17923 -2.37316
1925 1 3.28088 6.60003 6.24969 5.66782 1.78924 1.95101
1922 2 1.79954 8.55471 6.58242 10.4336 5.90275 5.12327
1927 2 3.5213 8.28956 8.39199 -1.01656 -2.89397 4.85492
1867 2 3.33785 4.67239 8.3397 -2.23676 3.23758 -7.18169
1924 2 1.69231 6.66094 8.22999 1.04966 2.93377 1.38881
1027 1 3.43643 8.53423 4.74379 -2.18391 -6.46976 -0.0421097
1923 1 -0.189398 8.13071 8.24409 -0.487682 12.3753 11.7842
1921 3 -0.105783 6.3592 6.44314 -4.50667 -5.00124 1.1315
1023 1 0.269013 8.30247 4.76856 -3.26961 -6.64046 -1.32052
1863 2 0.0918731 4.68802 8.49639 6.59651 3.13976 0.0587569
971 1 6.93508 4.75466 4.4972 8.94919 -2.86787 -2.29865
1028 2 5.26297 6.39261 4.81508 3.78169 -3.92224 -3.5191
1866 3 5.11656 4.71792 6.62846 -1.76472 -0.549957 5.20847
1929 1 6.98628 6.45548 6.55019 2.87606 2.37002 -3.06203
1928 3 5.25456 6.50159 8.23652 1.53059 -5.57459 5.56998
1926 2 5.38459 8.26167 6.34558 -0.447244 0.133967 -1.24891
1871 2 7.09735 5.10875 8.34759 -1.85555 14.034 1.94956
1931 1 6.95883 8.34017 8.20728 -1.11125 -4.90646 0.0479503
1031 1 7.15679 8.478 4.61195 0.232158 -5.50321 -0.821028
1870 3 8.55451 4.62708 6.36441 -1.77559 -1.44966 5.46948
1032 2 8.67101 6.3507 4.51305 -2.04482 8.32679 -3.34518
1930 2 8.80815 8.3159 6.56951 2.37392 -2.40153 -3.98146
1932 3 9.07 6.52638 8.15983 2.26577 0.155071 -4.5798
1036 2 12.4285 6.5783 4.71438 0.90174 -3.9645 -7.03699
975 3 10.5119 4.76828 4.78716 3.25459 -2.12128 -2.22066
1874 1 12.6787 4.58194 6.60354 0.421712 0.253592 -2.72445
1933 3 10.7484 6.40926 6.30389 4.64076 3.83288 -0.827613
1934 1 12.7071 8.22796 6.53468 1.45906 1.60869 4.21474
1035 1 10.5635 8.47586 4.999 4.26143 -0.194085 -0.297232
1875 2 10.8243 4.56668 8.40033 0.499607 -5.16447 0.733388
1936 2 12.579 6.69205 8.37646 -1.75926 -1.7294 1.98227
1935 2 10.9294 8.26823 8.21293 2.43655 -10.5016 5.96066
1878 1 15.9734 4.97051 6.48749 4.00419 2.88376 -1.03492
979 2 14.35 4.8174 4.71755 -5.26645 2.9283 1.63095
1040 3 16.123 6.77393 4.57628 2.39521 -5.00094 2.20363
1937 2 14.3677 6.58384 6.38661 -6.1292 -2.86833 -5.81834
1940 2 16.2869 6.64942 8.45974 -0.505487 1.30582 -6.09922
1039 3 14.266 8.40481 4.66717 -6.99378 3.87048 -5.33242
1879 1 14.2202 5.03762 8.3744 4.82207 1.78707 4.7332
1939 1 14.504 8.2557 8.56374 1.32002 -5.22657 5.67376
983 2 17.7082 4.70661 4.46374 6.8991 2.08773 -3.30849
1938 2 16.0692 8.36979 6.4604 -1.82082 4.05982 -2.45479
1943 1 17.684 8.54143 8.16924 0.16092 1.16334 -4.64379
1941 1 17.9456 6.60369 6.46471 4.383 -0.201102 6.50289
1043 2 17.7835 8.61884 4.52836 -3.117 -2.14478 -3.11035
1883 2 17.7634 4.70952 8.62994 -1.07997 -1.03275 3.09684
987 3 21.2129 4.92375 4.57952 -1.34682 2.2248 -1.8704
1044 2 19.2673 6.48089 4.66636 3.85843 -5.27759 1.11064
1882 3 19.4024 4.75694 6.61305 -0.620538 -4.56123 -3.41103
1945 3 21.2296 6.46108 6.42994 0.00808258 3.73238 -0.968719
1047 3 21.1903 8.17593 4.64664 -1.02829 -1.39866 1.85761
1887 1 21.0958 4.80327 8.2453 1.2936 -0.392156 3.10298
1947 3 21.3673 8.37696 8.14912 1.25764 -3.04176 4.45383
1944 2 19.6965 6.78561 8.30536 -0.223932 -2.29515 -7.746
991 1 24.9519 4.68874 4.82152 1.32151 -2.80768 5.42017
1048 2 23.3891 6.49331 4.72063 -1.41195 6.91501 -2.9751
1886 3 23.0626 4.67835 6.46595 -1.08636 -6.43872 1.45466
1949 2 24.972 6.75722 6.54223 -1.08189 0.0764483 3.63759
1948 3 23.1021 6.42639 8.29158 -1.40803 0.169235 1.90566
1051 1 25.0947 8.22392 4.679 2.59747 2.29392 4.58417
1951 3 25.0641 8.19781 8.36728 3.91129 -0.468776 -8.06586
1891 3 25.1256 4.70176 8.39856 -3.58491 1.4159 -0.762982
1946 3 23.1232 8.12498 6.44743 -7.06041 4.85501 6.06859
1890 1 26.6607 4.71319 6.57199 4.17951 0.906551 -2.29128
1052 2 26.644 6.32882 4.70264 -3.66272 4.10216 1.77141
1950 3 26.7024 8.29413 6.60094 -3.80856 4.52875 -4.1807
1083 2 -0.219239 11.7533 4.79407 4.55672 0.120267 -1.99591
1084 2 1.78679 10.1084 4.79842 -1.33778 -1.17255 1.84512
1087 3 3.41568 12.0445 4.62766 -2.53634 -7.98943 3.76273
1982 3 1.57112 11.7679 6.468 5.22361 -4.73689 2.42604
1985 1 3.50215 9.95184 6.5593 0.0824853 8.38525 3.73358
1984 2 1.36438 10.0829 8.08976 1.44096 -0.629662 -2.86948
1987 3 3.24693 11.9791 8.23918 4.31675 2.8231 2.42533
1983 3 -0.0258257 12.1226 8.41869 6.95051 0.0994686 -3.18111
1088 1 5.33766 10.1283 4.80075 0.0733918 0.522011 -3.38549
1091 2 6.93452 11.8279 4.66195 0.344393 0.296761 2.32021
1986 3 5.06318 11.9403 6.55988 1.6933 -0.0137009 -1.09173
1989 2 7.11704 10.2408 6.66569 -7.63202 -1.49924 2.31681
1988 3 5.12917 10.3667 8.36653 4.44143 -7.49055 0.545485
1991 2 6.86181 12.0615 8.42341 -3.17634 -1.8829 -4.68704
1990 1 8.72501 12.1587 6.79084 1.53328 1.51969 -13.0422
1092 1 8.80292 10.1653 4.50279 -1.11274 -3.3003 -1.00487
1992 1 8.91441 10.0276 8.39181 -5.49353 -4.08701 3.29153
1095 3 10.4561 12.1302 4.74022 6.95342 6.31558 -1.50865
1096 3 12.4511 10.2613 4.91364 -3.90878 0.763653 -5.81076
1993 2 10.3442 10.1958 6.37841 -3.38372 2.9566 -2.35474
1994 2 12.396 11.8123 6.65147 4.9391 10.7835 -6.56356
1995 3 10.5948 11.9119 8.41656 -2.93577 4.80741 6.55322
1996 1 12.6255 10.2292 8.30178 -0.541719 2.04565 6.07322
1099 3 13.945 12.1399 4.70252 6.50544 -3.08608 -3.49065
1100 1 15.8682 10.2727 4.58548 -9.6824 -3.20294 3.93247
1997 1 14.4496 10.1885 6.54409 1.12487 -5.57118 2.69347
1998 2 15.7464 11.8234 6.47077 -9.21581 -0.207291 -0.0477021
1999 2 14.2819 11.9736 8.30509 -0.248227 -2.50457 1.18304
2000 1 16.0509 10.2195 8.24148 -0.431019 -5.95381 2.62401
2001 2 17.4913 10.2597 6.38258 3.3152 0.41431 -1.94624
1103 1 17.853 11.9927 4.97382 3.8496 -5.46589 -0.67264
1942 2 19.5975 8.80426 6.45547 -3.14199 -2.99618 -7.53344
2003 1 17.9543 11.8563 8.28311 -6.5517 1.7978 -0.249309
1104 1 19.5499 10.3779 4.7042 -7.17331 4.04804 1.8334
1107 1 21.3389 12.0871 4.76734 -5.59099 0.796893 -7.10584
2002 2 19.742 11.7729 6.50168 0.9493 1.66805 0.541548
2005 2 21.5988 10.0446 6.20095 2.03439 6.2109 -0.534588
2007 3 21.4123 11.8224 8.1151 -0.301148 4.37552 3.57728
2004 3 19.7019 10.1804 8.44295 -3.98129 -1.04368 -4.4442
1108 1 23.0266 10.0129 4.42292 2.74422 -3.3413 3.52358
1111 1 25.2171 12.0895 4.89466 -0.560508 -3.07359 -0.0806408
2006 3 23.2905 12.2097 6.52346 -2.19113 1.41513 6.34676
2009 2 24.8303 10.2777 6.35012 -2.1254 4.24586 1.03925
2008 3 23.2552 10.1281 8.07127 -5.4858 -3.08275 -0.255692
2011 3 25.1774 11.9397 8.34394 -2.3264 -1.10369 -0.832715
2012 3 26.6852 10.0185 8.56458 0.422238 4.16718 -8.09999
1144 3 1.1789 13.7521 4.87105 -5.40453 -0.401558 -4.39065
1147 1 3.16239 15.6044 4.7235 0.228328 0.0679204 -7.04591
2042 3 1.73756 15.6537 6.48243 -0.573993 1.602 6.8998
2045 2 3.19922 13.806 6.53975 3.84064 4.68957 1.51926
2044 2 1.71965 13.7869 8.39134 -1.64623 1.04893 -1.02239
2047 1 3.535 15.6125 8.40681 -0.410109 -1.48213 2.35804
1204 2 1.50828 17.6764 4.777 -3.32679 3.42617 3.10031
2104 2 1.90409 17.3263 8.35962 -2.21025 -5.17566 5.37232
2105 1 3.69814 17.425 6.70588 5.55217 -4.61931 3.94595
2043 2 0.113845 15.6949 8.40768 -1.20901 -0.638223 2.32283
2101 1 -0.238839 17.5032 6.73964 -0.064407 -4.93266 -1.71564
1148 3 5.23979 13.767 4.7779 -6.08774 -1.62145 1.05518
1151 2 6.91168 15.3827 4.97806 -0.910145 -6.83297 6.62609
2046 1 5.12421 15.5714 6.45398 -7.61847 -5.80432 -6.56221
2049 1 7.01302 13.6644 6.50496 -6.30789 0.483888 4.23294
2048 2 5.04597 13.6478 8.09006 2.17219 6.6926 -10.3822
2108 2 5.14248 17.5082 8.45487 -5.48957 -3.32699 -3.44
2109 2 7.12098 17.5091 6.39375 -2.08215 -1.52007 -4.07746
1208 1 5.23537 17.3504 4.70353 3.59291 3.38298 1.42889
2051 2 6.85201 15.9095 8.14204 1.97795 -4.6073 0.907407
1152 2 8.50355 13.676 4.68039 4.6038 4.23442 -3.04176
2050 1 8.60048 15.8125 6.52423 -1.38545 -2.95191 5.20114
2112 1 8.76576 17.4539 8.4428 -1.91988 -4.09966 1.08108
2052 2 8.86566 13.8945 8.39776 -2.54155 3.92011 -10.7178
1212 2 8.76975 17.4232 4.76509 -2.6858 1.41713 2.37725
2056 1 12.472 13.7284 8.55676 0.257161 1.53177 0.812553
2053 2 10.5026 13.6741 6.83987 2.4259 0.0910029 5.80563
1155 1 10.3746 15.4272 5.09655 -4.60732 -1.81281 -0.889662
1156 3 12.0568 13.9186 4.94927 -1.46753 -1.53144 -8.13853
2054 2 12.5741 15.5212 6.54179 9.79 -11.8997 -0.694465
1216 3 12.0876 17.2859 4.82543 2.10457 0.452223 -6.8623
2055 1 10.5381 15.6089 8.03762 -2.72094 -4.01314 -3.63835
2113 2 10.4164 17.5448 6.6503 -3.26629 -5.80811 -1.52826
2116 1 12.4245 17.2734 8.47618 -4.92455 -5.01937 2.49715
2057 1 14.1761 13.8481 6.71427 0.573809 -1.04066 -1.7372
1160 3 15.9113 13.814 4.66138 -3.00915 -1.0773 4.99662
1159 2 14.2145 15.5837 4.90613 3.89489 -3.65791 1.37412
2058 3 15.9767 15.6914 6.46847 -3.37232 6.92896 -4.69064
2117 1 13.9587 17.6663 6.57227 -5.33369 -0.308769 0.052937
2120 2 15.9859 17.5346 8.48902 -1.84461 7.43617 -2.05503
2060 1 16.3251 13.7159 8.20673 1.10074 1.75416 -3.64856
2059 3 14.4249 15.7906 8.12306 -4.15032 -1.95038 -3.69805
1220 1 15.7895 17.4245 4.76236 8.92374 7.37322 3.51138
1163 3 17.4622 15.601 4.52643 1.90489 -7.86166 5.89637
2121 3 17.5052 17.6089 6.64126 -3.22131 4.02859 2.69166
2063 3 17.5926 15.7575 8.33691 0.562324 -2.23551 -3.6626
2061 3 17.8745 13.9145 6.43382 -0.671428 -2.17688 -1.33812
1164 3 19.7011 13.7681 4.79459 -2.42239 3.68355 0.9686
1167 3 21.4297 15.7978 4.88234 -2.8333 5.3132 -1.05092
2062 2 19.5404 15.6577 6.681 0.00583125 4.82957 1.05817
2065 3 21.4286 13.8836 6.55663 3.71042 -3.53543 -12.246
2067 3 21.4114 15.8765 8.19494 -2.84016 0.945283 4.5538
1224 1 19.2865 17.0804 4.83676 3.20366 0.769217 5.83232
2124 3 19.4046 17.5725 8.34629 0.432849 -2.81696 -2.95289
2064 1 19.6436 13.8255 8.15395 -2.64984 4.52505 -8.52146
1168 2 23.1339 13.7362 4.65906 -7.05581 -7.73522 1.89291
1171 1 25.014 15.5843 4.78237 -7.03502 5.13288 0.211171
2066 3 23.1908 15.8352 6.64984 4.77262 -2.03468 -1.04129
2069 2 25.1057 13.9276 6.62801 -1.51865 0.984879 1.5873
1228 3 23.0975 17.6135 4.5704 5.57349 4.41508 0.521638
2129 1 24.827 17.6514 6.37019 -3.56019 -4.50643 1.27842
2068 2 23.6477 14.1659 8.35586 -2.83204 2.31458 -5.07831
2071 1 25.2578 15.7282 8.50716 -6.72198 3.79755 -0.479333
2070 2 26.6627 15.9629 6.39932 4.42976 6.92832 -2.15705
2132 1 26.6816 17.351 8.12114 5.24842 4.1905 -3.33797
1207 2 3.29476 19.1547 4.94928 -1.06727 -0.767367 3.45928
1264 2 1.58116 20.9934 4.77089 -4.91377 0.922424 -0.838965
2102 1 1.71376 19.1738 6.82644 0.32729 8.0922 -3.15971
2165 3 3.20372 20.9005 6.73285 -3.75595 1.41614 -8.92518
2107 1 3.51426 19.1387 8.35785 -1.46452 2.00052 -0.401566
2164 2 1.53246 20.9251 8.31128 0.348476 2.14826 5.33609
2103 2 -0.0669216 19.3006 8.51331 4.12043 5.49281 2.72218
1211 2 7.15386 19.2447 4.8661 4.8786 2.16798 -1.59984
1268 1 5.18444 20.8836 4.49651 -5.83222 -10.8866 -1.40351
2106 3 5.21599 19.4959 6.66187 -1.07742 0.0979801 0.304343
2169 1 6.72888 21.1847 6.3739 2.20772 -4.99674 4.98794
2168 3 5.19813 21.0024 8.49736 0.446238 -2.52564 -1.35725
2111 3 6.99057 19.2584 8.18278 0.455744 -0.717898 -4.40757
2172 2 8.75095 21.1395 8.38418 -0.596778 -3.91163 4.12117
1272 1 8.6775 21.0971 4.73317 -3.62643 -4.02279 -3.97415
2110 3 8.83459 19.3179 6.76896 -0.250811 -3.73725 -0.580694
1215 3 10.5558 19.1621 4.80426 -6.86203 3.47799 4.67097
1276 1 12.1513 21.2167 4.54772 -4.35914 -0.461389 -2.88489
2114 2 12.0023 19.1747 6.66947 -9.02333 -0.638691 -1.83178
2173 3 10.3921 21.1359 6.55421 1.96942 0.569366 5.86179
2176 1 12.4548 21.1168 8.45846 -0.284862 2.37839 2.49902
2115 2 10.4382 19.2079 8.65357 6.13555 1.50325 -0.715272
1280 2 15.6985 20.9251 4.88309 -1.68553 -2.16391 -5.08048
1219 1 13.808 19.2726 4.54869 -1.95679 -4.02269 0.142127
2118 2 15.6688 19.1362 6.42267 -5.03734 5.52081 -0.98883
2177 2 13.8898 21.1054 6.60793 4.70296 3.42802 -6.70368
2119 1 13.9771 19.2545 8.10131 -5.8113 -1.6826 2.07484
2180 1 15.8349 20.9379 8.36396 -2.07598 -8.56575 1.38098
1223 1 17.6001 19.0263 4.75401 -0.429372 0.0393567 3.77587
2181 2 17.4471 21.0665 6.47217 -2.52455 6.44496 -2.986
2125 2 21.397 17.7934 6.75341 -8.68473 -2.75701 4.0461
2123 3 17.7634 19.489 8.2491 -2.53585 5.89068 2.5961
1284 1 19.4767 20.999 4.98633 -0.377222 -1.56002 1.6141
1227 1 21.3497 19.3719 4.63886 -2.77218 1.09197 2.17355
2122 2 19.5557 19.1233 6.42956 -4.10151 1.50828 -5.07089
2185 2 21.4702 21.166 6.46554 -5.31543 -1.03812 -4.10098
2184 3 19.701 20.8948 8.4983 2.57309 -1.43566 4.65115
2127 1 21.5321 19.3193 8.64981 -3.23727 3.25979 -0.232497
1231 2 25.0089 19.4526 4.62663 0.795152 0.285695 6.71588
1288 1 23.1902 20.9571 5.05432 -1.83486 1.00269 -1.18342
2126 2 23.1415 19.1752 6.59469 2.86262 2.46512 2.00752
2189 1 25.0954 21.2366 6.30789 -2.40833 1.53547 0.747201
2188 3 23.3116 20.9767 8.13633 -1.76445 -3.28303 2.64568
2131 3 24.9026 19.2336 8.3592 2.25843 -0.0590855 4.45675
1292 3 26.7287 21.0712 4.77562 -3.17986 0.114783 4.5768
1267 1 3.26315 22.7637 4.71424 -0.555947 9.47189 4.11905
1324 2 1.54857 24.7256 4.89521 -0.612934 1.14396 -6.24705
2162 1 1.59982 22.708 6.44952 -2.14981 5.12898 0.0782361
2225 3 3.18141 24.4959 6.52087 1.42809 2.94978 -0.197693
2224 2 1.25165 24.8754 8.28483 0.541448 -3.08408 -1.5871
1327 2 3.32796 26.5374 4.62753 2.58966 0.485048 -0.813651
2222 1 1.41425 26.5034 6.72311 -1.83049 2.32399 1.4532
2227 2 3.27293 26.6101 8.64987 -0.78473 -3.07049 3.09814
2167 1 3.32907 22.8648 8.5917 -1.78701 2.09641 2.45622
2163 2 -0.0478047 22.7777 8.42042 -8.51726 -0.823362 -4.79322
1271 2 7.07424 22.9132 4.64503 1.50448 -5.97512 -4.01307
1328 3 5.07416 24.7512 4.69596 2.80181 0.423272 -3.01242
2166 2 5.1929 22.7526 6.43721 1.55732 0.853671 0.816354
2229 1 6.74166 24.7082 6.5575 1.99546 1.93547 -2.55051
2171 3 6.83914 22.8442 8.4319 4.55082 -1.00412 -1.39905
1331 1 6.9975 26.339 4.36598 -2.50532 -4.93537 -5.0813
2228 3 5.13858 24.7348 8.26682 -0.396738 -1.63955 1.36296
2226 2 5.1952 26.5342 6.54283 -5.45209 5.88252 -2.31008
2231 3 7.03927 26.4117 8.07976 -2.32992 -0.640154 2.48077
2170 3 8.67952 22.7904 6.75932 2.05359 5.60433 3.53094
1332 2 8.73164 24.5722 4.95941 -5.61707 -2.28188 2.41628
2232 3 8.83762 24.4791 8.41134 0.0899048 4.44143 -0.724452
2230 3 8.89036 26.3002 6.50963 -4.72649 -0.193616 1.08316
1275 2 10.3878 22.7712 4.6971 -3.62076 1.61485 5.39574
1336 3 12.0697 24.2504 4.56335 5.38175 -1.1899 -2.64034
2174 1 12.1099 22.6115 6.7103 -4.10962 2.09003 0.222563
2233 1 10.8648 24.6892 6.60364 -4.59663 -8.35031 -2.9623
2175 2 10.5815 23.0518 8.14343 -6.88162 2.23545 -1.98968
2236 2 12.2642 24.7601 8.45973 -0.46907 2.88422 1.71817
1335 3 10.6922 26.389 4.86005 3.7962 -0.495952 3.45765
2234 2 12.6427 26.4939 6.50583 -7.41106 2.54643 4.03058
2235 2 10.5635 26.3495 8.22557 -2.99118 5.96333 -2.50389
2178 1 16.021 22.7532 6.66289 -1.08173 5.54725 0.462837
1279 2 14.1591 22.8131 4.68914 0.0247576 -0.239131 3.25113
1340 2 16.047 24.6293 4.62638 2.38021 -4.26631 3.35986