ITEM: TIMESTEP
45600
ITEM: NUMBER OF ATOMS
13500
ITEM: BOX BOUNDS pp pp pp
-2.5116182604084969e-01 5.3771161826036312e+01
-2.5116182604084969e-01 5.3771161826036312e+01
-2.5116182604084969e-01 5.3771161826036312e+01
ITEM: ATOMS id type x y z vx vy vz
7 3 3.35388 1.54057 1.63488 2.32603 2.78193 -0.489471
64 2 1.7215 3.43129 1.73045 -5.56433 -2.69883 -10.1935
902 3 1.59999 1.48442 3.31519 -3.90125 -0.474651 -3.75997
965 2 3.64298 3.39786 3.39558 -3.68832 1.57386 -2.69623
3 2 -0.22143 1.54498 1.24131 -1.89494 4.02343 5.97215
961 1 -0.239474 3.23673 3.09439 -1.12997 4.0343 -2.28695
2 2 1.38062 1.65093 -0.19056 0.0664445 7.2667 2.11781
901 3 -0.23466 -0.107788 3.44422 4.60003 -2.8762 1.80761
11 3 6.98367 1.50655 1.6764 2.92934 0.0511733 13.0812
68 3 5.26061 3.23186 1.7565 8.67591 2.00006 -2.6207
906 1 5.24572 1.40629 3.40609 -7.34367 -0.033985 0.135898
969 2 6.8996 3.15837 3.73421 -0.14392 0.798495 1.91993
69 3 6.80411 3.39359 -0.21458 -2.7116 -0.307733 -4.43308
72 3 8.54054 3.60955 1.44355 -0.913084 -2.08629 0.145923
6 1 5.36673 1.61608 -0.193384 -1.60038 -2.75574 -11.9725
9 3 7.0165 -0.229602 -0.12768 -5.33901 -2.6745 -4.83033
10 3 8.77173 1.56672 -0.114221 2.42913 2.69288 -1.9943
12 3 8.98105 -0.212534 1.82996 7.95874 -3.88031 -4.67071
910 3 8.7505 1.68475 3.48575 -1.30199 6.21738 1.08905
15 3 10.7262 1.737 1.70677 -1.13309 -1.00617 1.57523
76 3 12.4179 3.38112 1.61802 0.956829 -4.49114 -4.68824
914 3 12.4974 1.73969 3.39515 3.22036 -2.02718 5.12694
973 3 10.2749 3.52468 3.3554 -2.81925 2.54525 1.37214
913 3 10.7763 -0.0996624 3.4388 3.46759 -0.891084 -5.48062
73 3 10.4353 3.25096 -0.126781 3.67272 -2.70425 -7.65215
13 3 10.7305 -0.0841016 -0.0410952 -1.04811 -2.95351 -0.665874
14 1 12.4619 1.54888 -0.0932375 -0.428996 6.09912 3.16509
16 2 12.6506 -0.211965 1.71389 -4.11265 2.58558 6.81151
19 3 14.1212 1.69845 1.72689 -0.0752515 -7.72172 -2.19569
80 1 16.022 3.34504 1.32651 -0.372412 3.52814 0.205887
918 2 15.8953 1.80683 3.13573 3.88167 2.94414 -5.10037
977 1 14.4945 3.54349 3.45798 -5.16991 -4.67114 4.8878
23 1 17.5685 1.37546 1.46329 2.06793 -1.0273 -5.03311
17 2 14.3214 -0.141179 -0.0872147 11.7974 -4.0757 -0.884209
20 2 15.9096 -0.0626184 1.79503 4.45895 5.16328 2.31665
981 3 18.0161 3.45099 3.33635 7.51463 -0.661485 3.03734
27 2 21.3402 1.36022 1.60459 11.1107 -0.925176 5.65246
84 1 19.4207 3.49761 1.42035 0.699998 6.01782 -4.85802
922 1 19.5297 1.67802 3.29298 2.02196 -1.72423 4.65184
985 1 21.3751 3.46231 3.32611 3.66353 2.24336 -0.847886
85 3 21.2612 3.3018 0.0338681 2.73094 6.19024 -0.276416
929 2 25.2465 -0.212679 3.14379 1.60128 -4.03339 2.99417
31 3 25.1177 1.56791 1.40594 4.94225 -1.5277 4.31509
88 3 23.1426 3.2492 1.41767 -3.65977 -6.19033 -2.9823
926 2 23.1296 1.52681 3.1701 6.82616 1.30421 4.68958
989 2 25.0179 3.24002 3.21789 5.63757 -2.64242 -4.42377
67 1 3.32034 5.07167 1.53034 2.05295 -0.525913 -2.01643
124 3 1.51048 6.79349 1.33143 3.67284 -3.06284 8.78123
962 2 1.39255 5.26524 3.14678 -3.13245 3.50033 4.95906
1025 3 3.04552 7.04153 3.2244 -4.99582 -0.300287 2.63764
1022 2 1.22949 8.70485 3.10709 -0.611739 -1.16543 0.459992
63 3 -0.211312 4.94356 1.32278 2.91854 -8.41917 2.02948
71 1 6.89562 5.46121 1.56048 -1.10238 -1.00725 1.69828
128 1 5.04294 7.17524 1.65476 -1.341 3.23861 4.60967
966 2 5.05088 5.25043 3.3325 -2.39083 4.71657 3.14271
1029 1 7.08036 6.97746 3.44007 2.73798 5.70564 -0.452356
132 2 8.61571 6.9716 1.63843 5.47537 -3.92189 -0.112593
131 1 6.7752 8.69197 1.49074 -3.78279 1.64792 -5.65779
970 2 8.58721 5.0918 3.35937 -2.54527 -2.56218 -2.09037
66 3 5.0552 5.23996 -0.167738 -0.303075 1.80557 -2.35213
129 1 6.94443 7.19056 -0.237892 4.5419 0.659103 1.42141
75 1 10.3881 5.01899 1.63847 2.87353 -6.11873 -1.63082
136 2 12.4155 6.7906 1.56297 1.6429 -4.15124 4.63733
974 3 12.6112 5.09055 3.50228 -0.245138 1.91672 -5.02482
1033 3 10.4799 6.82711 3.06098 -4.03117 -0.544434 4.87641
135 1 10.5052 8.69484 1.38403 4.4773 3.8598 0.534944
1034 1 12.1678 8.65599 3.06176 -5.46996 1.43192 -1.54187
79 3 14.2751 5.31688 1.44972 -1.80923 1.65339 0.822634
140 2 16.038 6.97208 1.41843 -8.46386 -3.93815 -1.68989
978 2 16.3583 4.98485 3.36998 4.53318 -1.46798 5.16165
1037 3 14.3937 6.73311 3.40861 -0.745706 -1.34328 3.13099
1038 1 15.7665 8.50353 3.46553 -3.31727 4.49794 -6.03113
139 3 14.3599 8.52101 1.61737 -11.9639 -3.96219 4.17398
143 1 17.7239 8.46735 1.53111 -1.14415 -0.701999 -0.24202
83 1 17.8098 5.12991 1.54112 7.56472 6.92603 -3.23062
1041 1 17.8938 6.96173 3.24623 4.54856 1.93798 -3.91298
87 1 21.3053 5.23598 1.59666 2.49702 3.44108 -1.21921
144 1 19.5073 6.7956 1.45901 -2.49434 0.893072 4.19305
982 2 19.5242 4.9975 3.20915 -2.96708 -6.79297 -4.34695
1045 3 21.185 6.76852 3.52072 0.820652 1.23977 1.61755
145 1 21.193 7.04119 -0.0775686 -0.112193 4.74824 -2.27249
91 3 24.9702 5.03316 1.36677 4.50296 2.51778 -2.86984
148 2 22.8385 6.82504 1.58366 -3.40232 2.37676 -2.83407
986 1 23.1539 5.04378 3.23755 1.86163 3.05753 -0.981017
1049 3 24.7694 6.90848 3.32226 -3.39711 -4.36799 4.49425
151 1 24.8693 8.65195 1.38405 -0.742649 -0.445661 -1.9066
990 3 26.6453 5.26666 3.26423 3.819 -6.25079 -7.05417
152 1 26.664 7.03581 1.3799 -4.40194 -3.08484 0.788458
1046 3 22.9761 8.58252 3.20103 -2.12693 -8.84331 -4.35767
127 1 3.08975 8.78245 0.875646 4.52568 1.93685 -1.88026
184 3 1.26855 10.5128 1.38791 -3.79128 2.14972 0.840911
187 1 3.47195 12.2764 1.4082 1.96781 3.00786 -2.86256
1082 3 1.29136 12.5656 3.13906 2.39721 0.00149699 3.64674
1085 3 3.12097 10.5167 2.90481 -2.06997 -5.3513 -6.46151
183 2 -0.179832 12.4225 1.47101 -5.82328 -1.49324 -7.78325
1026 3 4.90891 8.81891 3.20589 -1.70093 2.59439 -1.34134
188 2 5.18524 10.361 1.21009 -4.90222 0.639761 0.535793
191 2 6.73328 12.2042 1.23133 -0.648145 -3.30625 7.49308
1086 3 5.20702 12.1628 3.2792 -2.29792 2.37043 -6.58367
1089 1 6.95079 10.5761 3.29936 7.31745 5.14921 -4.63579
192 2 8.60948 10.1845 1.41775 3.00926 5.60741 0.489838
1090 3 8.7399 12.5044 3.19687 -3.49104 -4.2766 1.88939
1030 2 8.88695 8.8 3.44226 -1.42346 1.02151 -3.98961
195 2 10.3843 12.1053 1.54386 -2.36426 -2.31743 -2.59608
196 2 12.1985 10.4349 1.24062 -1.25596 -4.43623 4.4798
1093 1 10.4588 10.581 3.36034 -2.82748 -4.04269 4.05768
1094 1 12.2434 12.1301 3.37571 -3.5102 8.92165 -1.3
199 2 13.8597 12.3597 1.62439 -0.211034 -5.78075 -3.69423
200 2 16.1036 10.5701 1.66395 2.55434 -0.559626 -5.3154
1097 2 14.2826 10.465 3.04226 -1.32983 1.20387 -7.69985
1098 1 15.6599 12.3437 3.15006 1.80124 2.37381 -3.565
203 1 17.7163 12.3987 1.31103 0.107528 -1.45388 -2.55944
1101 2 17.779 10.4586 3.48928 -1.29288 -2.37114 2.28583
1042 2 19.5735 8.79418 3.47079 -3.3302 -6.93232 4.47142
147 2 21.1271 8.88088 1.58745 1.46541 -10.8727 -0.52667
204 1 19.3668 10.3682 1.59963 1.57727 2.77245 -2.50441
207 3 21.4626 12.4485 1.5371 2.57535 3.01302 -0.310071
1102 3 19.4737 12.209 3.06568 -2.05801 0.444318 -4.50638
1105 1 21.2218 10.5654 3.17869 -1.73525 -6.46388 1.28998
201 2 17.8114 10.5452 -0.0656428 -2.08955 3.64724 4.68424
1050 1 26.6619 8.82941 3.18989 -0.627934 2.44163 -0.813199
208 2 23.3402 10.3642 1.60522 1.69364 -1.29519 -2.17212
211 1 24.8401 12.2603 1.47146 2.17594 -2.11454 -1.6595
1106 2 23.0185 12.4071 3.27684 -3.58398 -2.72422 -2.91941
1109 1 24.8247 10.445 3.22185 0.944773 0.894251 -0.428334
212 2 26.7176 10.3541 1.25372 1.06552 5.22401 9.18421
1110 2 26.4209 12.3178 3.02706 -3.77063 7.20167 0.234152
210 1 26.5784 12.2374 -0.256645 -1.02547 -2.72775 -7.69659
206 3 23.1659 12.4784 -0.22147 -2.29913 -4.64056 -0.00794609
244 3 1.61484 14.1717 1.40265 -11.0991 -7.13402 -2.69897
247 3 3.36511 15.8611 1.73034 2.92629 -1.09658 -1.22712
1142 1 1.33294 15.8836 3.23621 1.99089 7.82747 -5.12811
1145 2 3.27607 14.0488 3.13202 5.8956 3.31186 -1.27815
243 3 -0.0955194 15.7908 1.2877 1.51672 -2.48706 -4.22143
245 2 3.59679 13.8742 -0.193437 0.116477 -0.958387 2.0219
248 2 5.28992 13.8541 1.56968 9.33021 1.55554 2.41133
251 1 6.82284 15.7911 1.68345 2.03547 2.87237 -0.0659443
1146 2 5.34062 16.1524 3.60383 -0.195914 -1.71008 0.123012
1149 1 7.08881 13.8804 3.08728 -1.16181 2.3644 -1.22245
1209 1 6.95599 17.6528 3.18535 -6.30375 8.45298 -1.74862
308 2 5.38778 17.6281 1.35943 1.04966 -0.956814 -4.83397
252 3 8.46527 13.998 1.27176 3.97066 2.73806 -4.34461
246 1 4.75492 15.8898 -0.247561 -1.87366 -0.215601 -0.816397
1150 3 8.76444 15.8731 3.17447 -2.58553 1.06832 0.490257
255 3 10.3002 15.7418 1.34264 -2.66584 -2.67477 5.02969
256 1 12.2513 14.042 1.50262 -1.69313 2.34661 5.35588
1153 3 10.4107 14.1051 3.24058 3.84504 -0.208988 -3.72321
1154 2 12.2799 15.9814 3.22542 -1.41567 -2.62877 -12.7432
316 3 12.1494 17.5777 1.33284 0.919337 -4.55832 2.63918
1213 1 10.4946 17.7223 3.33007 -2.66486 -6.12705 -2.97707
259 3 14.052 16.2419 1.38222 -2.23651 2.5831 -7.46829
260 3 15.8261 14.163 1.4782 6.01182 3.63808 3.58615
1157 3 13.8846 14.1684 3.17927 -2.01491 0.239222 9.66053
1158 2 16.228 15.9523 3.33796 -8.94863 -5.55397 -2.1174
1161 2 17.5847 13.9945 3.27458 0.0845699 0.562221 -2.76932
263 2 17.5391 15.8711 1.21384 -2.19965 -2.39991 -4.90815
320 1 16.0193 17.702 1.69013 -1.97514 -0.924381 1.95596
258 2 15.6833 16.0963 -0.153505 -0.792307 -4.88395 -2.09514
257 3 14.1901 13.7948 -0.236078 -1.10928 -0.42991 5.31376
264 1 19.2407 14.2823 1.51471 -2.40365 -0.790455 0.0239303
267 1 21.2453 15.8626 1.47003 2.15671 -0.798882 -0.867441
1162 1 19.3159 15.6913 3.31854 -6.33337 2.75349 -3.05424
1165 2 21.031 14.0992 3.17416 0.671476 2.71328 0.806222
324 2 19.464 17.7258 1.4884 2.47898 2.56869 2.55074
1225 1 21.2018 17.68 3.21732 0.966813 8.28932 -4.47361
268 2 23.1199 14.3129 1.70677 1.55604 -3.04716 -4.48433
271 1 24.9106 15.9105 1.31658 -0.688301 -0.940287 1.56753
1166 1 22.9417 15.9376 3.25765 1.89007 7.9567 3.2792
1169 2 24.9815 14.4176 3.08013 1.55456 -1.22128 1.72472
1229 2 25.0552 17.5605 3.13973 -0.583747 -4.66568 -1.30993
328 2 23.2113 17.4892 1.47315 6.58428 7.67377 8.16097
304 3 1.35566 17.7689 1.27551 0.72846 -1.10427 -3.29503
1205 2 3.44665 17.8354 3.0594 6.09043 -2.20373 -3.53521
307 1 3.29705 19.5967 1.44587 -6.52167 -7.83466 -2.28695
364 3 1.6554 21.1803 1.25471 -0.0159397 11.893 -1.19218
1202 3 1.46996 19.408 3.15447 1.32115 -0.618262 -0.618135
1265 2 3.37905 21.238 3.21797 0.276222 0.0723839 -2.06421
1261 2 -0.206966 21.0959 3.09199 -0.453283 -3.82762 -3.15555
311 2 7.17147 19.5126 1.5939 1.66823 -2.07727 -0.945174
368 1 5.32103 21.1802 1.40683 -7.31439 4.62225 2.76302
1206 1 5.07839 19.479 2.91355 1.63953 0.443862 -2.0391
1269 3 6.84447 21.383 3.19339 0.199247 -4.53866 -2.03856
1210 1 8.73873 19.12 3.80988 -1.24008 6.35694 2.4518
369 1 6.99081 21.1394 -0.184342 -1.53262 -2.97746 12.6945
312 3 8.99266 17.7972 1.37588 0.0245477 6.06238 -2.4748
372 2 8.74962 21.1768 1.60048 -6.23277 -2.43197 1.67305
315 3 10.7479 19.3647 1.51708 5.33293 -1.27003 -1.1616
376 3 12.2283 21.115 1.5491 3.13115 1.62967 3.34086
1214 1 12.1601 19.425 3.38858 5.53083 -2.43224 -0.710584
1273 2 10.3686 21.0333 3.65401 2.57834 2.44049 -4.19174
310 1 8.99457 19.7459 -0.224037 2.39595 -6.29718 2.65899
317 1 14.0461 17.9042 -0.209604 3.09627 8.31162 -0.558361
1217 1 13.8092 17.9871 3.09638 -0.48688 -2.95633 -1.68032
319 2 13.9341 19.5557 1.46307 4.56858 -6.9686 -2.91884
380 3 15.6208 21.3763 1.69669 -3.65398 0.88301 4.26612
1218 3 15.8939 19.466 3.20937 1.33793 -1.06012 1.39231
1277 3 13.8543 21.1681 3.07728 -1.10635 3.59099 -3.52441
1281 3 17.4237 21.4989 3.14385 4.10461 2.91577 5.7063
381 2 17.4037 21.3218 -0.204105 -6.71296 -1.06467 3.52888
323 1 17.8482 19.4046 1.52255 4.2622 -1.73648 0.184279
1221 1 17.8835 17.9686 3.3529 0.0491784 1.30632 3.6303
327 2 21.504 19.5057 1.12978 -4.75544 4.25927 5.13797
384 3 19.2597 21.3468 1.34328 2.69034 -6.53602 1.29297
1222 2 19.5197 19.6949 3.08771 -2.60632 2.3561 4.88072
1285 3 21.4931 21.3393 3.35055 -0.969549 -0.61562 1.154
385 1 21.4181 21.2568 -0.236984 -4.72344 0.379089 4.13764
331 2 25.0461 19.3994 1.57495 -3.48609 3.12914 -1.35798
388 1 23.1494 21.0805 1.48444 -0.245332 -4.52914 0.713789
1226 1 23.2646 19.3019 3.21782 0.810918 -5.60645 3.59538
1289 3 24.8558 21.4131 3.55293 3.96751 -5.67444 -0.267325
389 1 25.115 20.9824 -0.21979 -4.80703 4.05798 -8.14795
1230 1 26.7031 19.4163 3.40385 -0.628148 6.25761 -5.91449
367 2 3.46941 23.2457 1.25938 3.12268 -0.887861 4.36145
424 2 1.64328 24.7781 1.46855 -3.09554 -1.72884 2.64794
1262 3 1.3874 22.9121 3.15923 -2.69385 -9.7744 -7.51023
1325 1 3.18841 24.9047 3.03764 -0.247053 -6.11827 -5.1096
427 1 3.21055 26.5752 1.13287 1.04753 2.09283 -2.89801
1321 2 0.0287908 24.9174 2.95338 0.845193 1.45938 -2.959
363 1 -0.188018 23.1298 1.14216 4.11178 -6.89164 -6.841
371 3 6.86889 23.2908 1.27709 -1.73758 -1.08423 1.45501
428 2 4.91113 25.2333 1.07676 -4.21382 2.67492 -2.86944
1266 1 5.0594 23.2455 3.14066 -1.6976 -0.628259 4.57432
1329 2 6.92138 25.2592 3.01962 9.17835 -2.46777 -11.3129
431 1 7.03336 26.6982 1.19525 -2.66466 2.54396 -0.842777
1326 1 5.00666 26.5901 2.75805 -6.57858 0.331644 -1.91715
1270 1 8.93665 23.1956 2.9717 7.87605 -1.5343 1.96633
432 2 8.85584 25.0948 1.39847 3.79579 -6.71023 -2.52173
375 3 10.6267 23.0534 1.29113 2.50762 -7.74716 -2.55159
436 1 12.2752 24.9361 1.33303 4.68149 0.267664 -3.58277
1274 3 12.1748 22.6637 3.22803 0.151094 3.18482 1.26368
1333 2 10.7853 24.9229 2.97856 -2.81553 -2.58155 5.66038
1330 2 9.19144 26.7306 3.06068 3.8408 -2.98003 0.323841
379 1 13.8068 23.0296 1.08982 5.09783 -2.60372 0.946734
440 3 15.4924 24.8488 1.32019 -2.13594 -0.25721 -4.33346
1278 3 15.2802 23.069 3.29467 2.12635 2.99469 7.73432
1337 3 13.8257 24.9656 3.23086 0.854509 0.992482 3.64093
439 1 14.1935 26.7636 1.11466 0.0883853 7.79267 -8.24811
1338 2 15.8486 26.5262 3.08916 -2.67637 3.37693 -2.00784
383 1 17.6565 23.1161 1.23549 0.425538 4.27388 -0.112771
443 3 17.8353 26.6048 1.40492 4.33134 -8.22325 2.07373
1341 3 17.8257 24.8232 3.18977 -0.897309 2.0654 7.07337
447 3 21.295 26.4836 1.46695 -5.45804 -1.88346 7.53519
387 2 21.4938 22.6947 1.46552 1.94455 -1.37689 0.91569
444 3 19.6117 24.7522 1.59897 0.625024 -1.47675 7.73151
1282 3 19.4098 22.9955 3.05769 5.43742 5.37752 -2.47547
1345 3 21.1331 24.8002 3.55503 -2.19677 -6.77251 3.32299
1290 3 26.7056 23.1016 3.22243 5.95016 4.96292 2.88703
391 2 24.8848 22.9588 1.36854 -5.13433 2.30287 -3.68144
448 3 23.1833 24.7414 1.61579 -1.59411 -1.35615 -1.62725
1286 3 23.1885 23.0505 3.39879 4.15354 -0.37752 2.42171
1349 3 24.9091 24.9496 3.16766 -3.87662 -3.16036 -5.93774
1350 1 26.7554 26.614 2.99646 0.148157 1.6295 0.25521
451 3 24.9166 26.5532 1.31438 6.57062 -3.33436 -1.33428
1346 3 23.138 26.7661 3.30267 -3.18361 3.25405 1.93202
907 3 3.20402 1.40231 5.16744 6.46952 1.53964 -2.34568
964 2 1.63135 3.421 5.07233 -0.36263 3.99668 -1.60818
1802 3 1.58809 1.40003 7.0654 7.58929 4.67255 -4.72314
1865 3 3.36274 3.15503 6.87366 6.23418 3.28922 -2.18708
903 3 -0.0569525 1.36635 5.17451 -6.3223 1.61579 5.26023
1861 3 -0.153744 3.06345 6.6687 7.65676 -5.39009 3.50475
911 1 6.83675 1.4202 5.29095 -3.04703 0.150121 2.54944
968 1 5.10077 3.61642 5.0596 -5.1484 2.02776 0.641682
1806 3 5.01661 1.70815 6.9671 -1.42037 -3.24593 3.81747
1869 2 6.91632 3.3721 6.84496 4.20453 -4.54991 -3.76181
1868 3 4.92476 3.50211 8.72747 3.17443 -0.257973 -1.89411
1872 1 8.82447 3.43902 8.52081 1.89387 1.22744 2.75445
1810 2 8.80608 1.43266 7.09434 -3.16394 -3.56091 0.406295
972 3 8.83566 3.43183 5.5766 -2.53187 1.64915 -1.73608
915 3 10.7377 1.6586 5.11792 -6.97431 -7.05229 -1.94582
976 3 12.23 3.64349 5.23963 -2.31187 -3.42823 -8.08333
1814 3 12.221 1.71756 7.06344 8.32564 -5.72218 2.28889
1873 3 10.5894 3.68003 7.20224 5.36743 1.97655 3.74293
1813 3 10.8311 -0.197525 6.82538 0.00861117 -2.24242 -0.410929
1876 3 12.3336 3.30241 8.65482 4.669 -1.55292 3.25336
1815 3 10.505 1.52424 8.53156 0.386631 -1.16309 3.27287
919 1 14.3047 1.64679 5.1046 2.90743 -4.45728 0.947925
980 2 16.2169 3.6741 5.56447 7.38394 1.72772 -2.30988
1818 3 15.9726 1.503 6.97266 -6.61945 -1.00264 4.67289
1877 3 14.3533 3.06292 6.98244 -0.305942 -4.35683 3.95623
1819 3 14.0431 1.29118 8.62473 -4.66735 1.64874 -4.38198
923 1 17.6842 1.84111 5.09768 3.64634 2.96235 -0.288829
1881 1 17.8567 3.29028 7.04343 4.04404 3.71951 4.24474
1825 1 21.3294 -0.255909 6.68542 -7.63166 -5.04461 -4.68617
927 2 21.7379 1.68936 5.14287 -0.911984 -8.13441 4.76224
984 2 19.6742 2.94087 5.11698 -6.30512 3.86624 1.16456
1822 3 19.5472 1.58052 6.99044 5.94243 2.51922 -6.07731
1885 3 21.5936 3.06706 7.20847 -2.07387 -1.00768 -0.997734
924 2 19.5383 0.145437 4.97545 1.83355 -1.06713 3.04199
931 3 24.9529 1.53076 5.05723 -5.2028 0.64056 1.46534
988 1 23.1564 3.29269 4.68255 2.78514 7.4865 -1.69249
1826 2 23.3059 1.27024 6.98119 5.71096 4.834 4.42339
1889 1 24.9366 3.35927 6.96684 4.60302 -1.74182 0.23041
992 2 26.7307 3.12433 5.22913 -1.89229 -3.6104 -5.96594
928 1 23.338 -0.0672168 5.16396 -1.33055 1.71205 7.21719
1831 1 24.8543 1.5546 8.60847 4.75829 3.18061 -9.14276
967 1 3.36091 5.38525 4.92463 -7.59547 1.25334 -1.0451
1024 2 1.41021 6.93742 4.93976 0.530482 -3.27363 4.08458
1862 3 1.49063 5.4887 6.78303 -1.4663 3.26143 4.56403
1925 2 3.28386 6.95795 6.71245 -2.2075 -0.165602 1.76563
1924 2 1.42324 7.0211 8.65167 -1.141 -2.76468 1.69737
1922 3 1.21493 8.52568 6.79004 3.5635 -3.77574 1.68331
1863 3 -0.138572 4.86423 8.44217 3.93507 -0.363982 7.05307
1927 3 3.29172 8.72537 8.52347 6.73076 -3.12307 2.05495
971 1 7.01824 5.24744 5.22099 6.67989 -1.23666 4.84904
1028 2 5.08003 7.03678 5.04766 0.108106 0.182975 2.76053
1866 2 5.1574 5.11341 6.8605 2.42018 0.824861 0.645845
1929 2 7.19248 7.32668 6.72665 4.03111 1.33749 -1.51191
1871 1 6.90318 5.10097 8.54652 -1.89126 1.71563 1.82627
1928 1 5.42044 6.89847 8.73144 -0.595116 -0.233502 5.22355
1926 3 5.37695 8.66859 6.93095 9.97224 -0.196658 0.950467
1031 1 6.86077 8.68835 4.95929 -0.647097 -2.22613 1.4855
1870 2 8.79869 5.51122 6.92185 0.235547 0.147178 8.65525
1032 3 8.98463 7.1249 5.10146 3.27192 -5.8913 -8.83087
1932 2 8.93373 7.27046 8.74767 0.457638 3.29233 4.92039
975 1 10.4639 5.2891 5.11975 -1.23287 -2.1813 -4.32709
1036 3 12.4352 6.92415 4.94421 1.88249 10.0416 1.70364
1874 3 12.5734 5.29253 7.00495 2.71999 0.496682 8.02795
1933 1 10.8019 7.35583 6.96615 6.08209 1.2304 5.49111
1875 3 10.5394 5.54734 8.47168 -2.93176 5.45736 4.73125
1035 2 10.7568 8.69103 4.90902 4.39973 4.85405 3.55856
1936 2 12.722 7.08427 8.52799 1.15283 0.773863 0.80334
1934 3 12.7735 8.6978 6.88867 4.42345 -4.38495 3.55715
979 3 14.3 5.13381 5.47113 -1.99892 8.60504 2.75403
1040 3 16.0593 6.78651 5.17537 -4.76658 4.03376 -1.69129
1878 1 15.8718 5.1077 7.46277 4.60918 1.06066 4.19079
1937 3 14.3876 7.05332 7.07768 1.11773 -7.20228 -1.05308
1039 2 14.006 8.58102 4.90753 -1.28925 0.403273 -7.18636
1940 1 16.3365 7.0762 8.62812 -2.76309 0.0179756 1.55341
1941 2 17.7219 6.75287 6.96847 -0.0130768 -1.46432 -5.54868
983 1 18.0966 4.86976 5.44995 4.38197 1.34394 4.72734
987 2 21.2131 4.92908 5.15959 -1.79777 5.24804 8.2523
1044 1 19.2832 6.84972 5.30224 -0.547506 0.0668765 2.80626
1882 2 19.4887 4.9804 7.48963 -3.76846 5.2448 1.55188
1945 3 21.2666 7.01696 6.83676 1.74014 -3.23612 1.30096
1944 3 19.7749 7.12497 8.74758 -1.04596 0.000971759 1.22331
1887 3 21.4741 5.07746 8.60904 -1.92209 -0.394045 1.17396
1942 3 19.4688 8.68421 6.88115 3.03763 -1.45953 -2.08994
991 2 24.8897 5.13375 5.22452 1.93123 0.608599 1.04884
1048 3 23.0626 6.54838 5.09889 2.16894 7.2398 -1.54942
1886 3 23.3413 5.00295 7.13622 -0.546803 3.57384 -7.13093
1949 3 24.9387 6.91429 6.79956 -4.92489 -0.614062 -1.01188
1891 3 24.9622 5.28204 8.72355 -0.478319 2.28456 4.55581
1890 3 26.6507 5.13509 7.01845 -0.917464 -6.66819 5.81759
1946 3 22.9853 8.75991 6.99166 -1.7176 6.58378 0.352543
1052 1 26.7229 6.76321 5.32127 2.81651 0.902486 -0.363949
1051 1 24.8354 8.65521 5.04198 4.45088 5.59497 -0.151061
1948 3 23.0127 6.85171 8.67032 2.06211 6.95059 7.99286
1027 3 2.98362 9.01413 4.89744 3.27163 -1.72231 -0.537392
1084 3 1.18972 10.6672 5.0221 3.66103 1.57749 -4.93191
1087 3 3.15919 12.3184 4.8815 2.3051 5.01363 -2.69837
1982 1 1.38859 12.3458 6.90275 1.32981 -5.00271 3.58342
1985 3 3.37278 10.5799 6.87585 3.53146 -0.553123 -2.2493
1984 3 1.56381 10.5413 8.60693 -0.51629 -4.22341 0.184007
1983 1 -0.177281 12.5805 8.73726 -0.789817 4.36107 6.78909
1088 2 4.94209 10.3659 4.90852 8.1119 4.43553 5.30953
1091 2 6.7224 12.2033 5.17547 3.71694 -5.5645 0.714372
1986 1 4.96551 12.5672 6.74254 -0.0508756 0.770179 1.43807
1989 2 7.1579 10.7629 6.83653 1.52788 1.40659 -5.72504
1991 3 6.84306 12.2914 8.73978 2.2483 -0.691539 -5.23956
1092 3 8.86841 10.505 4.91875 2.25871 6.26761 -4.35989
1990 1 9.15106 12.0881 6.91922 1.68115 -0.312407 1.57926
1930 1 8.97191 8.84217 7.05136 -2.3747 -3.45573 2.6223
1095 2 10.7343 12.3191 4.97222 -4.58841 -3.12331 -3.94208
1096 1 12.5117 10.316 5.02088 2.11115 2.61764 4.61816
1993 2 10.8294 10.5991 7.018 -4.68524 -1.13466 3.06607
1994 1 12.2012 12.4406 6.80628 5.68134 3.94587 -1.51785
1996 1 12.4305 10.5591 8.65513 1.92969 -1.96973 -5.09122
1938 1 15.8367 8.90762 6.63141 5.99131 1.09981 -5.94835
1099 2 14.0712 12.3852 4.6966 3.8069 -3.81245 2.46995
1100 1 16.0634 10.5263 4.84099 7.28036 7.67806 -0.0584013
1997 2 14.1531 10.8871 6.74658 -1.79266 -2.05992 -0.13229
1998 2 16.0906 12.2741 6.91583 -11.0153 -2.93751 5.15555
1103 3 17.7043 12.2533 4.94647 -1.22135 -0.390851 -3.66978
1999 1 14.1967 12.3213 8.66865 0.36282 -1.82272 1.90559
2001 3 17.6448 10.4522 6.94533 6.62985 -0.275781 -0.826501
2003 1 17.5899 12.3138 8.61821 -0.862409 1.00109 -5.60281
1043 3 17.7696 8.75714 5.0653 1.39096 -0.14793 -1.87017
1047 3 21.3392 8.94526 5.10081 3.07442 6.6894 -2.28355
1104 3 19.6386 10.5544 5.20701 7.71398 -2.74603 3.48759
1107 3 21.3632 12.3177 5.46308 1.53234 -0.965239 3.19215
2002 3 19.3947 12.3994 6.98689 0.221382 -2.31656 4.03184
2005 3 21.3102 10.5303 7.03868 3.90567 -4.22909 -4.00931
2007 2 21.3786 12.4167 8.59144 1.49396 0.0752967 -8.53343
2004 3 19.6587 10.5016 8.69146 -0.699421 -5.16801 -5.14356
1951 3 24.7715 8.76 8.50564 -7.96372 0.412799 -2.8027
1950 2 26.6702 8.8248 6.71771 -6.42982 -4.84594 2.96277
1108 3 23.2086 10.66 5.08653 -0.0303582 1.12613 -3.96301
1111 1 24.8036 12.4922 4.95542 2.66072 -1.10815 0.739331
2006 1 23.004 12.4901 7.05273 2.09877 7.81705 0.656394
2009 2 24.8515 10.5656 6.88912 2.20156 5.01656 -3.70523
2010 2 26.5432 12.5149 6.76253 -0.808969 -2.19829 4.03383
1112 1 26.4021 10.576 5.36532 -1.66828 0.741943 7.27869
2011 1 25.1349 12.3681 8.68014 0.594266 -0.488428 -3.54811
1144 3 1.67622 14.4021 5.19217 -3.14913 -0.800043 3.98487
1147 1 3.2384 15.939 5.16576 3.44776 0.0548121 -3.13065
2042 2 1.54781 15.9553 6.82256 -0.0570012 5.82588 -4.89679
2045 2 3.27619 14.048 6.87835 5.42096 9.19423 14.8081
2047 1 3.44294 16.1888 8.58834 2.48094 -4.80064 -2.4731
2105 1 3.39463 17.7365 6.87568 -10.9276 7.85501 0.540263
2044 1 1.67265 14.3801 8.51432 -1.63326 -1.13668 -6.36172
1204 2 1.41644 17.7021 4.96708 2.82509 -2.08389 1.37486
2043 3 -0.206864 15.8882 8.37991 1.99171 5.53827 1.78928
1148 1 4.96646 14.1874 4.76823 1.14886 -5.88146 -1.23974
1151 3 6.8999 16.0149 5.2343 0.125419 -1.16722 -7.70553
2046 2 5.10296 15.7962 6.68604 4.60782 5.82142 -9.78902
2049 1 6.7996 14.0476 6.87078 -3.08654 3.53319 -0.0579215
2048 3 4.92623 14.1989 8.56631 -3.51183 -0.973539 -1.19763
2051 2 6.78197 15.8066 8.64084 -1.89285 9.78376 -1.16957
1152 3 8.71377 14.0345 5.33093 -1.67419 -6.32873 -5.33688
2050 3 8.70525 15.7604 7.15513 1.74748 -4.0912 -2.74397
2112 2 8.34227 17.6293 8.7434 0.149892 -0.121785 -1.15349
1208 1 4.93107 17.732 5.0686 -6.53614 -1.58248 2.95341
1212 3 8.79007 17.4175 5.42109 5.08428 4.81114 0.826412
1155 3 10.579 15.8424 5.20417 -3.53096 -3.96816 -0.393535
1156 1 12.1637 14.1708 5.07269 7.50774 -0.0891925 -4.26633
2053 3 10.4375 14.1192 6.88478 -0.0558269 -5.68962 -4.65572
2054 2 12.4553 15.8297 6.93203 -5.28331 1.30734 3.56195
1216 3 12.1873 17.6361 5.16376 3.11401 0.887897 -2.65214
2113 3 10.58 17.5854 7.24999 2.76579 -1.5216 -2.49039
2056 1 12.6406 13.9283 8.42315 -5.67964 -2.33936 -11.2669
1159 2 13.9587 15.795 4.92001 3.30747 2.58726 1.54163
1160 1 15.6735 14.1986 5.02117 -3.71916 3.81782 -3.27512
2057 2 14.2283 14.0851 6.84047 -5.23671 -5.83802 3.60466
2058 1 15.83 15.904 6.91229 -1.38409 2.65425 -0.352913
2117 2 14.0826 17.5067 6.90352 -2.36226 6.83751 1.18118
1220 1 15.7327 17.571 4.87243 -3.7915 1.0651 -1.90192
2061 2 17.4192 14.3631 6.6968 2.39772 -5.41052 3.4373
2063 3 17.6557 16.078 8.61414 -5.16247 5.11456 1.57631
1163 1 17.7952 15.9525 4.99785 -0.301401 -1.70229 3.28675
1164 3 19.3913 14.0322 5.11254 -1.42754 2.10066 1.49447
1167 2 21.1925 16.0474 5.08206 -4.56882 -0.662597 -4.33404
2062 1 19.6207 15.8004 6.77342 0.601291 -0.127426 -1.71849
2065 1 21.3967 14.3415 6.79727 6.75316 7.97043 3.39931
1224 2 19.422 17.5704 5.05293 2.19556 10.4733 -7.00867
2067 2 21.4241 15.7777 8.66397 -3.77137 3.98358 5.1598
2121 2 17.7705 17.5734 6.81647 -9.90537 -4.84154 2.7636
2064 3 19.4437 14.144 8.68349 3.72866 4.02656 -6.58758
1168 1 22.8204 14.3008 4.99646 -2.2799 -4.12993 6.25233
1171 3 24.9939 16.0774 4.86511 -3.09483 -4.84621 -1.17727
2066 1 23.1053 15.7931 6.85738 -3.92641 3.49921 1.81623
2069 1 24.7593 13.961 6.69175 3.23112 -2.40913 2.31795
2068 2 23.2932 14.1372 8.57988 -3.28061 4.5907 -1.32178
2072 3 26.7141 14.1516 8.65258 1.09986 -1.1414 3.08005
1172 1 26.6651 14.2564 4.85448 -1.73228 1.12584 3.94957
2070 2 26.7095 16.0322 7.07437 4.28345 -2.38462 0.889901
2071 3 24.8936 16.1176 8.4054 7.36925 -4.46453 2.99931
1228 2 23.0927 17.6022 5.04462 -1.19104 2.4232 -4.70517
2104 2 1.52092 17.9948 8.60478 -2.09107 0.679856 -5.18613
2161 1 -0.153076 21.0937 6.83845 -3.04144 -4.14804 -3.64843
1207 1 3.56452 19.6625 4.83708 1.60862 -2.28897 10.4846
1264 1 1.57852 21.214 5.03912 3.17679 4.78368 -8.43911
2102 2 1.79653 19.4981 6.72139 3.10126 -4.44434 -2.92199
2165 2 3.25018 21.2715 7.01258 5.33912 -5.87367 2.65144
2107 3 3.44182 19.4095 8.72293 6.83974 -1.47061 -0.693662
2108 2 5.34636 17.9092 8.49459 -3.76376 0.931947 2.73847
2109 3 6.90636 18.0282 6.81868 4.673 -1.38326 -2.78619
1211 2 6.56545 19.5532 4.86184 1.76407 0.321328 9.02879
1268 1 4.98742 21.4323 5.05397 5.31005 3.01846 -1.04418
2106 2 5.17368 19.5227 6.76517 -3.60121 -2.25145 4.28842
2169 1 6.83505 21.5829 6.49001 6.23045 -3.36631 -1.65672
1272 2 8.71328 21.3191 5.01254 3.84644 1.72899 -5.70528
2168 2 5.37351 21.3125 8.62484 -4.63702 2.82216 7.86539
2110 3 8.61225 19.8729 6.87537 5.42233 -1.07637 6.04583
2172 3 8.42265 21.4496 8.71184 -0.869035 2.92681 -1.17048
2111 1 6.83478 19.4081 8.69964 4.83673 2.52683 -2.68017
1215 2 10.564 19.2421 5.36866 -7.32484 -0.0877556 -12.8786
1276 1 12.2523 21.3549 5.24301 2.99196 -1.69904 1.24409
2114 2 12.3196 19.7082 6.87293 5.09204 4.83035 -0.81777
2173 1 10.4807 21.5869 6.83311 1.96309 2.03406 -6.18339
2176 3 12.4754 21.322 8.53797 0.190487 0.715154 -6.95099
1219 2 13.9832 19.4788 5.09161 -1.09878 -1.13435 -2.6463
1280 3 15.889 21.3616 5.03958 -3.59437 -2.35696 6.44925
2118 1 15.8279 19.3379 6.86243 5.22219 1.71241 -2.23627
2177 3 14.2345 21.3353 7.04197 -0.865623 1.24176 -3.47267
2181 3 17.6316 21.2872 6.80312 0.42533 5.77479 3.79071
2180 2 15.9327 21.3059 8.67817 -6.25647 -1.77819 1.59278
2119 1 14.0236 19.3584 8.34275 1.49958 -2.6948 -4.1281
1223 3 17.6398 19.3732 5.11309 -2.60709 -7.07936 3.17572
2120 2 15.911 17.8323 8.73029 6.30964 2.04992 -6.32234
2123 3 17.8714 19.5566 8.72511 -1.21091 -5.30877 4.25891
2125 3 21.4011 17.8687 6.865 -0.225514 -2.31045 0.675696
1227 1 21.2788 19.2905 5.17397 0.73367 4.6735 3.76072
1284 3 19.3854 21.4432 5.09037 -6.47009 -2.21779 -0.201638
2122 3 19.4921 19.532 7.03503 2.87177 2.79056 2.29837
2185 3 21.0639 21.2307 7.15416 -0.48126 7.88717 -4.82806
2124 1 19.5441 17.7555 8.61109 -0.11653 -2.98017 -2.81655
2129 2 24.8677 17.8418 6.89301 1.86914 -6.71142 -0.445895
2130 1 26.6637 19.6586 6.96427 4.74882 -3.65005 -1.71614
1231 3 24.8311 19.5096 5.19588 3.97155 2.16057 -3.58537
1288 2 23.1652 21.0648 5.00769 0.0220287 3.86068 -4.03262
2126 1 23.0189 19.5714 6.86521 -4.59559 1.48855 -1.85673
2189 3 24.8749 21.3848 6.73153 1.3269 0.0302223 -5.92888
1292 2 26.571 21.2762 5.03557 6.72927 -1.79745 -0.416807
2188 2 23.0769 21.3627 8.56612 4.3734 -1.9445 0.920328
2131 2 24.596 19.6836 8.64621 -0.747719 -2.55642 -2.06743
2192 3 26.3302 21.4364 8.56454 -8.64339 0.252914 -6.73469
2223 3 -0.225876 26.2746 8.67634 2.6204 5.02923 2.67501
1323 1 -0.197911 26.4346 4.50483 1.61727 0.496643 1.98346
2221 3 -0.156448 24.6007 6.74945 -1.39496 1.22212 1.20077
1267 2 3.44193 23.0917 4.84071 -0.480591 -4.1073 6.33767
1324 1 1.37301 24.8998 4.92472 -0.559795 4.18776 2.34736
2162 2 1.56737 23.2601 6.7605 -1.07658 -3.51304 -3.29288
2225 3 3.26991 24.9437 6.85674 -1.99674 3.22871 -4.71666
1327 2 3.02427 26.5518 5.07218 -3.36272 1.04687 6.47813
2222 1 1.41978 26.5987 6.95277 2.98735 -1.90652 -3.16849
2227 1 3.10651 26.6552 8.60094 4.83272 1.95639 3.56242
2163 1 -0.186082 22.7643 8.46365 -7.64419 -3.53101 5.48325
2167 1 3.30914 23.011 8.57828 3.5244 0.907614 -1.47031
2224 2 1.36834 24.7543 8.74098 1.55068 4.1767 -3.34247
1331 2 6.93105 26.6173 4.84518 -0.931905 -0.512206 -0.65937
2226 2 5.20034 26.4146 6.5797 -6.38393 2.61464 0.489769
1271 2 7.25105 23.3818 4.78589 -1.38827 -0.718353 2.38684
1328 3 5.10874 24.8765 4.8293 -2.45361 2.54723 0.476911
2166 2 4.99523 23.0903 6.71086 4.57827 -2.57946 -1.96114
2229 1 6.87695 24.8602 6.61135 -6.88455 -3.70437 -0.317216
2171 2 6.94285 23.0946 8.65597 -1.26253 2.86687 3.10267
2170 3 8.63874 23.3166 6.75071 5.14016 3.66015 -6.50567
2228 3 4.89829 24.7943 8.46021 -3.37227 -2.60912 -0.626516
2232 3 8.42688 24.898 8.52158 -4.94982 -0.00263818 -0.459369
1332 1 8.95429 25.3138 4.91566 -2.58388 -5.86177 4.71483
1275 2 10.6993 23.1998 4.99242 -3.07329 -3.52111 -2.52047
1336 1 12.1478 25.0732 5.06189 -0.919601 -4.48994 3.21122
2174 2 12.2638 22.9479 6.83591 -7.09592 -1.02966 -0.932498
2233 2 10.6571 24.9686 6.77506 -2.20764 0.41729 6.42984
2234 1 12.3512 26.5481 6.92261 -3.73212 0.063556 3.59265
2175 1 10.3809 23.2619 8.46632 2.64239 -3.42174 5.22616
2235 3 10.3898 26.6393 8.66932 6.19531 -6.27221 2.35231
1279 3 13.848 23.1679 5.10645 -2.78073 -1.04127 -2.89592