ITEM: TIMESTEP
88800
ITEM: NUMBER OF ATOMS
13500
ITEM: BOX BOUNDS pp pp pp
-2.4978707891755647e-01 5.3769787078905793e+01
-2.4978707891755647e-01 5.3769787078905793e+01
-2.4978707891755647e-01 5.3769787078905793e+01
ITEM: ATOMS id type x y z vx vy vz
7 3 3.57005 1.43653 1.46559 0.876155 0.99396 1.14388
64 2 1.62278 3.26781 1.53052 -2.49672 -5.05618 -3.78776
902 3 1.58158 1.50532 3.36589 2.89013 4.03988 -3.81839
965 3 3.31979 3.56447 3.23185 2.18541 3.09572 -1.02928
3 2 -0.0773826 1.45045 1.36718 0.759262 3.84129 -5.61849
4 1 1.8879 -0.147272 1.37624 3.27437 -0.0818641 -0.0340593
961 1 -0.099107 3.64024 2.99426 2.23168 6.1186 -4.37774
11 1 7.07841 1.27137 1.59686 3.12828 3.08221 1.04872
68 1 5.30643 3.26309 1.56713 -2.67083 -3.42842 0.931653
906 3 5.33486 1.36936 3.14226 3.06144 -1.19861 5.72732
969 2 6.89027 3.42854 3.43089 -1.74045 4.70444 3.53243
910 2 8.72826 1.83413 3.13213 5.23118 10.2839 10.516
12 2 8.7472 -0.243808 1.00762 -0.881597 -5.70483 1.0792
72 3 8.7766 3.43201 1.20013 1.81895 -1.97854 5.70578
15 2 10.6803 1.67895 1.42265 2.55395 8.89926 0.585321
76 3 12.4378 3.23461 1.26962 5.62356 -2.74237 -2.02765
914 1 12.3932 1.20268 3.08062 0.765291 1.2374 2.08191
973 1 10.6087 3.30002 3.03079 4.37895 6.85139 0.184324
16 2 12.4076 -0.234207 1.32058 1.23444 -4.51902 1.34129
913 1 10.4297 -0.135672 3.04984 -1.75677 4.29799 0.201117
19 1 14.4407 1.36261 1.06253 -1.16271 2.13578 -2.67397
80 1 16.1178 3.23863 1.23109 -2.34045 11.9492 5.56626
918 2 15.9696 1.59864 3.22084 -2.86726 0.278497 3.2139
977 3 14.3379 3.20428 3.05795 -1.3696 -2.98226 -1.9478
981 2 17.8097 3.3745 3.09072 -0.680721 0.218379 -3.92437
23 1 17.764 1.39177 1.14524 -2.92158 -0.911165 0.72989
27 3 21.5056 1.45318 1.18813 9.14077 -5.56767 2.75308
84 3 19.708 3.29839 1.25855 5.20659 -1.09412 -2.41791
922 1 19.6803 1.40981 3.09071 -2.4008 -0.703477 -1.64626
985 3 21.3678 3.33655 3.13375 -2.1149 -1.68823 -1.19908
921 1 17.7767 -0.127057 3.22178 -1.33151 -1.98295 -1.07524
31 3 24.8161 1.57991 1.26312 2.09767 0.328211 -6.08468
88 3 23.161 3.42903 1.32535 1.19584 -0.571178 0.500699
926 3 23.1584 1.53312 3.05553 3.58966 -1.45783 0.730733
989 3 25.0398 3.25173 2.98168 -4.83084 1.23725 -5.32216
930 2 26.4944 1.47696 3.41071 -1.07523 -6.12083 2.67316
28 2 23.0949 -0.190425 1.23866 7.07137 4.4548 -0.780375
67 3 3.29627 5.10882 1.28536 -0.32272 0.443692 1.24299
124 1 1.56465 6.81772 1.17455 2.5649 2.78712 -2.16785
962 2 1.39654 5.44651 3.31377 -0.521395 -8.2181 7.38959
1025 1 3.38713 6.89766 2.95982 -5.89403 0.727391 -1.27081
1022 3 1.38105 8.74544 2.91489 1.17584 1.13308 -0.744351
127 3 3.29418 8.71531 1.33957 0.951577 3.13561 -2.28257
123 2 -0.249932 8.59842 0.971082 -2.47282 5.93287 -5.58023
71 1 7.03343 5.01314 1.50356 -0.677122 -0.675604 -1.79942
128 1 5.15151 6.75479 1.26174 5.16809 2.01687 -5.64639
966 2 5.22303 5.17885 3.19778 -8.71655 -2.57559 0.722008
1029 3 6.98581 6.71804 3.02071 -2.34373 -3.17662 -0.397043
1026 3 5.27308 8.56974 2.98898 4.32846 1.8945 5.72278
131 2 6.98201 8.49386 1.3502 -1.72015 -3.82275 5.25792
132 2 8.90056 6.82467 1.28013 2.03302 -2.80679 -1.14791
970 3 8.96931 5.05737 2.98033 3.29002 -5.49838 1.96376
75 3 10.7083 4.99025 1.34695 -2.08195 -2.60908 -1.25991
136 2 12.2706 6.86503 1.36707 -1.23652 -2.25845 -6.69613
974 3 12.3317 5.08508 3.14235 5.26949 3.14423 6.21309
1033 2 10.8917 6.79003 3.36132 2.37193 -0.656317 4.03713
1030 1 8.95266 8.67586 2.88319 -4.70648 -4.40985 2.10753
79 2 14.1159 5.06936 1.28541 -4.87112 -0.0179928 12.4527
140 2 15.9081 7.12819 1.07919 3.62565 0.697047 2.81124
978 2 16.0326 5.3435 2.96459 -2.6577 0.977682 2.26993
1037 1 14.1292 6.89098 2.86129 -0.717938 0.377627 2.31602
1041 1 17.6939 6.94456 2.90099 -3.15824 -3.57186 -1.61297
83 1 17.8723 5.08892 1.37695 -4.46106 0.618311 -3.81756
87 3 21.0847 5.13089 1.49969 -1.28837 4.25348 -5.4179
144 2 19.3244 6.94404 1.22144 2.75525 6.02216 -3.24905
982 2 19.4304 5.26224 3.36364 0.492598 3.71855 0.79415
1045 1 21.1598 7.02043 3.32871 -0.36477 -0.81673 0.871078
147 1 21.1596 8.61467 1.1789 3.6717 1.07321 -0.963452
1050 2 26.7406 8.56014 3.10641 -4.86975 3.18044 -0.453404
91 3 25.1953 5.1831 1.04563 -2.99053 -1.61591 -1.83637
148 1 22.8795 6.77312 1.19998 -3.10847 -4.53512 4.57275
986 3 23.1803 5.2422 3.16706 -0.755784 5.09659 -1.24483
1049 3 24.9573 6.84077 3.00076 7.56233 -3.65093 2.34041
151 3 24.8604 8.53967 1.34763 2.92123 5.01965 2.35701
1046 2 22.9438 8.30537 2.83005 0.363119 -7.08616 4.63119
990 1 26.7489 4.95387 2.75634 2.71913 -1.42263 -3.61102
184 3 1.45418 10.5796 1.39857 3.44229 -1.49035 8.42361
187 3 3.22502 12.1723 1.409 2.98058 -5.56765 4.68786
1082 2 1.55119 12.3918 3.15773 7.17431 1.43729 -4.93516
1085 2 3.35176 10.4769 3.10633 1.6886 -2.08616 7.70691
185 2 3.4319 10.5644 -0.151968 2.6411 1.68793 1.78276
188 3 5.2435 10.4559 1.34794 -5.27945 13.0693 0.0454546
191 2 6.87042 12.2286 1.33853 4.69559 5.83587 5.39662
1086 3 5.10943 12.2876 3.23698 -4.3838 -0.104924 1.0935
1089 1 6.97946 10.2775 3.12657 1.90064 2.34239 1.32355
192 3 8.51293 10.4003 1.14595 0.876976 -0.899852 -5.50393
1034 2 12.3361 8.77935 3.0194 3.17208 4.07989 4.09832
1090 3 8.76306 12.0911 3.12893 -0.879409 -0.690081 -0.813899
135 1 10.4931 8.84521 1.23707 -2.67872 1.88733 2.56107
195 3 10.2672 12.3765 1.30318 0.917851 0.517962 -2.53829
196 1 12.2721 10.4632 1.13453 -5.31505 -4.8697 3.42096
1093 1 10.5936 10.3886 3.02955 1.52257 -1.69784 -5.80278
1094 1 12.1044 12.1257 3.18087 7.78654 1.91896 -8.43759
1038 2 16.053 8.94963 3.10046 -1.47249 1.39087 2.94303
139 1 14.2509 8.82919 1.29126 -0.413548 0.794681 -0.423235
199 2 13.809 12.3216 1.34862 8.90466 -3.13412 -3.10678
200 1 15.793 10.8095 1.32098 -2.01465 7.3302 -0.219049
1097 2 14.0803 10.7927 3.20021 4.33035 -8.20589 -1.72765
1098 1 15.7352 12.3218 2.9615 -1.95987 4.47809 0.299425
143 2 17.6886 8.83909 1.53829 -5.16478 1.0043 -6.82422
1042 2 19.4651 8.9034 3.01253 2.26267 6.21473 1.78887
203 2 17.8382 12.2366 1.27943 -3.23064 -0.441827 -1.6714
1101 1 17.827 10.674 3.12821 -4.38401 3.25908 -0.613548
204 2 19.7721 10.5816 0.964979 1.10728 -1.97815 -6.34808
207 1 21.5723 12.363 1.19321 5.16271 1.31573 -2.77973
1102 1 19.6749 12.3432 3.2752 0.507816 -3.81031 -3.24789
1105 2 21.4868 10.548 3.01883 6.56638 -2.2918 0.52049
212 1 26.6683 10.4358 1.49215 6.62827 -2.94189 -4.30422
208 1 23.2689 10.4632 1.18951 -0.123538 -4.3707 0.897827
211 3 25.0143 12.4955 1.36899 -10.178 -2.63246 -1.7489
1106 2 23.1986 12.3074 3.15295 -3.2691 -4.15721 -0.629262
1109 3 25.068 10.5067 3.11183 -0.0568962 1.09686 1.32908
1110 2 26.6512 12.2807 3.07257 -5.43104 2.46366 4.85642
244 2 1.44155 14.0861 1.20096 3.2474 10.4988 -3.42797
247 1 3.10681 16.0994 1.00353 -0.44078 4.14769 -2.95282
1142 3 1.5393 15.7873 3.13591 -3.8339 3.70815 -4.18987
1145 3 3.29117 14.0373 3.47456 -2.96065 0.405177 3.83545
1201 3 -0.0181561 17.7374 3.30938 -2.18845 1.94726 -2.72255
243 3 -0.124226 15.8955 1.25341 -5.47302 2.62161 -4.77965
1141 3 -0.212801 14.0312 3.03494 0.398572 -2.56371 3.46141
248 3 5.01222 14.1314 1.50284 4.98533 -2.29441 -1.32388
251 2 6.61228 15.7215 1.69131 5.17788 2.94467 -3.2427
1146 3 4.80436 15.8909 3.27964 0.793837 0.713949 -3.32521
1149 3 6.86812 13.8757 3.23316 -3.99487 -2.08313 3.6861
1209 1 6.74826 17.3338 3.01172 -2.77641 0.275552 0.353243
252 3 8.50373 14.2115 1.35939 -3.2986 -2.90809 0.258291
309 3 6.92264 17.6896 0.0756782 1.64489 -5.9722 -3.21963
308 3 4.93514 17.7283 1.44964 -1.2697 -6.99236 -0.41494
312 3 8.8079 17.5241 1.67974 4.1979 -4.19717 11.0691
1150 3 8.84735 15.676 3.2701 -4.61557 -4.81066 -0.894139
255 2 10.5965 15.9437 1.58288 -4.89981 0.140044 2.59115
256 3 12.1177 13.9152 1.25564 1.02696 4.23599 -6.12407
1153 1 10.5703 14.0408 3.50456 -2.04479 2.5258 3.59221
1154 3 12.4296 15.9094 3.05732 -5.2033 -3.5529 4.06159
1213 3 10.7413 17.441 3.34985 -5.11704 2.57273 -0.112457
316 2 12.2473 17.5983 1.48162 -2.22656 6.26554 -5.07835
259 1 13.844 15.8951 1.23733 -0.796598 -4.74917 0.78497
260 1 15.7538 13.9504 1.12539 -2.592 -6.20593 7.96413
1157 2 13.8596 14.051 2.97959 -0.259389 0.791762 -5.79092
1158 1 15.6967 15.6123 3.0042 -0.117469 5.64061 -2.5543
320 2 15.8523 17.4362 1.27367 -3.76767 -2.16375 -3.40713
1221 3 17.4706 17.4134 3.27675 0.894298 4.15665 -4.21335
1161 3 17.5323 13.953 2.99782 0.657296 0.929755 4.3564
261 1 17.6537 13.858 -0.232843 -6.31057 -0.218752 -5.86215
263 3 17.7843 15.6513 1.33317 0.924435 5.77697 0.426924
264 2 19.7625 13.7035 1.4229 -1.28029 1.26937 -7.60697
267 1 21.2109 15.8476 1.20412 -5.15115 -2.40624 -4.67222
1162 1 19.5444 15.6129 3.01132 -4.30356 -3.85113 2.37582
1165 2 21.488 14.1483 3.22722 4.69204 3.91882 5.47433
324 2 19.4522 17.754 1.71481 1.87093 6.62457 -8.56297
1225 1 21.5717 17.509 3.07524 -0.129689 0.165949 -2.04246
268 3 23.1576 14.0339 1.41899 -0.371714 -3.37669 0.108601
271 2 25.0224 15.8499 1.23406 1.9192 -0.846662 1.03884
1166 1 23.2644 15.8732 3.14581 -3.66005 0.0154399 -2.64031
1169 1 24.9896 13.8995 3.27771 -0.819442 0.827295 0.483358
332 1 26.5265 17.615 1.2353 2.24319 -2.5954 -0.67768
328 3 23.1782 17.467 1.34099 3.617 -7.1322 3.57405
1205 3 3.17358 17.8435 3.13418 11.2997 3.48455 3.94078
304 2 1.40344 17.954 1.15115 -2.37679 0.219073 -9.7173
307 1 3.18543 19.5663 1.443 2.96575 -3.45744 1.84918
364 2 1.41614 21.5673 1.38917 -0.216697 -0.0477188 -2.45992
1202 3 1.59517 19.5463 3.17535 3.43583 1.19091 -1.50377
1265 2 3.17044 21.6508 3.35055 -3.32998 -2.37268 8.70951
303 3 -0.220623 19.8173 1.50472 -3.83409 0.546909 -0.548639
1261 2 -0.00887441 21.3333 3.19438 5.37647 0.102165 3.25109
311 2 6.69814 19.6625 1.5047 -3.16509 2.87841 4.98612
368 3 4.86115 21.3164 1.38548 2.98103 0.316912 2.21304
1206 3 5.17925 19.6181 3.3223 2.2253 4.28031 2.9047
1269 3 7.00618 21.3717 3.08438 -3.757 1.00966 1.55271
1210 3 8.46599 19.3868 3.11057 -1.78966 1.58227 -9.80198
306 1 5.2239 19.4839 -0.179475 1.11515 -3.71482 -1.03412
372 3 8.77745 21.2789 1.48882 -6.75199 3.06443 0.950035
315 1 10.5821 19.026 1.65087 -0.50867 0.607627 -3.29759
376 3 12.5233 21.4078 1.32812 0.647122 -2.56893 2.85741
1214 1 12.3953 19.5497 3.42412 -0.0453031 -0.383614 -6.9692
1273 2 10.7303 21.1449 2.98127 -1.22865 -1.41731 -6.9641
1217 3 14.1622 17.7673 3.2281 5.52631 -1.55725 -2.87089
319 2 13.9499 19.4404 1.35998 -9.62888 2.23018 -6.215
380 1 15.8344 20.9226 1.54117 0.111234 -7.78469 -0.162364
1218 2 15.7274 19.3703 3.33921 1.58431 -2.79803 -5.2849
1277 2 14.0144 21.2613 3.44016 -1.49576 -0.787417 5.00154
323 2 17.6073 19.3238 1.55267 0.319615 1.82882 -1.22877
1281 3 17.731 21.2789 3.33301 0.631739 -1.84823 5.76566
327 2 21.6281 19.4967 1.36888 -2.84658 -3.08158 -7.16247
384 1 19.6548 21.0613 1.36489 7.65402 -0.578135 -8.06059
1222 1 19.6354 19.6266 3.18809 -4.11201 -5.56268 4.05
1285 2 21.6278 21.3904 3.09234 2.95882 2.09487 0.995508
381 2 18.0176 20.8393 -0.19073 -6.33337 -3.26582 -1.94968
1229 1 24.8297 17.7658 3.09429 8.66442 -5.24407 -0.63469
331 2 24.8023 19.4022 1.45665 1.94956 0.893262 -3.46287
388 1 23.2903 21.5514 1.35838 0.378094 4.83326 -5.74288
1226 1 23.0668 19.5282 3.25376 -2.93514 -3.07868 1.51375
1289 1 25.0106 21.3297 3.18239 5.56138 -0.190077 1.16122
392 3 26.5816 21.3439 1.13765 -1.33683 -5.35125 -5.23785
1230 3 26.6047 19.4807 3.08118 -0.3916 -8.46978 2.22375
326 2 23.2148 19.2403 -0.139247 -0.827743 2.54415 -3.94589
367 1 3.11822 23.1786 1.39562 6.68323 -3.19677 -3.97148
424 2 1.53171 24.9213 1.36506 -4.21939 -2.04471 -7.41062
1262 1 1.53547 23.3437 3.14459 7.55428 -1.4495 1.69997
1325 2 3.225 24.9884 3.29948 -1.31031 -2.85404 -1.59024
425 1 3.09257 25.0941 -0.201826 0.766826 -5.95897 -1.88445
1326 3 5.09308 26.5743 3.24316 -5.05461 3.96767 -6.70659
371 2 6.94336 23.1993 1.27869 -0.36353 -3.18418 3.78572
428 1 4.94872 24.9447 1.21024 -1.89926 4.0957 3.47059
1266 3 5.23231 23.14 3.16434 4.54763 2.46594 2.96389
1329 3 7.08007 24.9596 3.63286 -1.7679 5.53663 7.01589
431 3 6.71626 26.5193 1.61538 -2.17414 -1.241 -1.78548
432 3 8.63543 24.9302 1.62 1.03486 -1.86177 0.587474
1270 3 8.6994 23.0803 3.31693 -2.42389 0.109106 -1.35927
375 1 10.5608 23.0395 1.49459 -4.97556 -4.47487 -4.9847
436 3 12.6177 24.7888 1.18727 -4.55413 -0.486966 2.94282
1274 3 12.4339 23.0671 3.18521 5.37091 2.55876 -0.786965
1333 3 10.4565 24.934 3.31098 -3.50597 2.04798 0.407818
433 2 10.6765 24.8244 -0.185837 2.50412 -1.62365 -0.105363
1334 3 12.4149 26.7385 3.0611 0.396471 -3.95985 5.06154
379 3 14.3921 23.0042 1.50592 6.28187 -5.94285 3.66679
440 2 16.3424 24.9389 1.32835 -4.04534 -4.75276 -0.0481901
1278 3 16.1291 23.2655 3.22209 -5.09353 4.18008 -3.40601
1337 3 14.2716 25.0836 3.46247 4.3147 -2.21653 -1.05735
439 1 14.191 26.7205 1.39182 -4.21036 -0.430953 -3.06531
383 2 17.738 23.1392 1.3263 1.34457 -1.38968 4.96547
1341 1 17.8369 25.0812 3.07008 5.91956 -0.545827 3.07148
387 1 21.2438 23.0839 1.20579 0.84799 5.2596 2.64315
444 2 19.5846 24.7077 1.18822 -1.67264 -1.48207 5.89208
1282 1 19.5959 23.2329 3.16524 -0.0630675 5.38953 4.16639
1345 2 21.2434 24.8926 3.11152 -0.343048 1.41208 -8.58775
447 1 21.4039 26.5534 1.04445 -6.69079 -1.82896 5.51094
1350 3 26.6497 26.6925 3.15046 -0.63956 2.56029 5.17558
391 3 24.8888 23.2996 1.19022 -7.49719 -2.29529 2.0422
448 1 22.9032 24.8157 0.889667 1.38411 5.33933 -2.32993
1286 2 23.0688 23.391 3.11458 -0.764306 0.0294393 -0.0456583
1349 1 24.7323 25.0521 3.33208 -5.46297 -1.70394 3.24442
1290 3 26.6242 23.3037 3.02003 1.3777 2.57968 0.935989
451 3 24.5288 26.6556 1.42193 0.660727 7.84776 7.26973
1346 2 23.0068 26.5447 3.31999 -3.1478 -7.40111 0.408839
907 3 3.28781 1.73636 4.86612 -3.04815 3.1887 0.978215
964 3 1.62427 3.49806 4.94545 -0.457568 0.711691 -0.322744
1802 3 1.40469 1.70868 6.69654 1.21997 4.0767 -1.86222
1865 2 3.12681 3.5011 6.5845 -4.39133 -0.0996553 -1.48626
1864 2 1.50777 3.55026 8.65819 -4.18376 5.7997 -0.0912293
1807 3 3.40676 1.75959 8.23796 -3.28413 -2.92699 -2.02469
1861 3 -0.182713 3.53613 6.86026 0.420385 -3.48853 4.63805
1803 3 -0.114852 1.64814 8.69765 -0.629896 6.42994 -0.348954
1805 3 3.33212 -0.0932015 6.9494 5.72607 -1.1054 3.41058
1804 3 1.7145 -0.221713 8.49749 -5.34578 4.67816 6.6675
1809 2 6.89818 -0.0734718 6.69874 -4.71255 2.44304 5.84018
911 1 7.02224 1.49601 4.95337 1.40637 3.0294 1.45399
968 1 5.09782 3.45361 4.83697 1.56446 -4.84601 -3.0863
1806 3 5.17733 1.72191 6.60246 0.787846 -6.66599 1.07189
1869 3 6.96379 3.48761 6.67334 0.34247 -1.89315 -1.04507
1868 2 5.22814 3.27116 8.26932 -1.73689 0.021292 -0.842546
1811 1 7.00409 1.54627 8.52696 -0.976396 -3.91781 5.92934
908 3 5.08165 -0.19455 5.09108 -0.588395 4.16969 3.70851
1810 2 8.78894 1.60272 6.79915 4.77334 0.962813 -0.250671
1812 2 8.81089 -0.0680974 8.64794 3.74536 -3.20693 2.98346
912 1 8.88134 0.097124 4.80761 -2.31816 1.73525 3.0991
972 1 8.96331 3.41101 4.81642 -2.2644 -1.57478 -0.330653
1872 1 8.85128 3.50002 8.49663 0.665944 0.696135 -1.03439
915 2 10.8014 1.43689 4.98128 7.97614 4.9632 5.07036
976 3 12.3487 3.33718 4.85583 0.0488061 -3.90536 -5.44811
1814 1 12.5662 1.32203 6.71351 4.50056 1.79368 3.36959
1873 3 10.5883 3.55419 6.66571 0.884401 -1.83604 6.99834
1815 3 10.626 1.53604 8.34058 8.01137 3.99656 -5.87881
1876 3 12.2067 3.21007 8.39678 -4.66249 -2.91654 -2.2388
919 2 14.1104 1.58118 4.84762 6.28187 -8.75887 3.53991
980 1 15.9147 3.18685 5.01094 -0.463082 -0.350421 -4.62346
1818 3 15.9738 1.47378 6.70314 -8.30888 -6.31463 -0.163162
1877 3 14.0565 3.17285 6.66345 -4.06426 0.52115 -0.331762
1880 1 15.8372 3.11085 8.65557 2.14715 2.25058 -4.48651
1819 2 14.2473 1.48781 8.4051 0.969547 -6.40977 1.98911
1820 2 15.9265 -0.172502 8.36635 6.11421 -3.12222 -0.902203
1881 2 17.869 3.2794 6.43108 9.09629 -0.789628 -1.38927
1824 2 19.6387 -0.110452 8.66342 -2.57581 1.24054 -3.19276
1823 1 17.8703 1.40397 8.58239 -7.20521 -0.191938 -2.33039
923 2 17.8737 1.50323 4.81755 -1.03495 4.44293 -4.57313
927 3 21.3542 1.65448 4.84462 3.64235 0.445811 -0.381347
984 3 19.6653 3.36438 4.72834 5.06381 7.00526 -6.69349
1822 1 19.6289 1.5293 6.65564 -0.794182 4.04111 -2.07805
1885 1 21.1338 3.44696 6.67097 -3.84884 1.60497 -3.26475
1827 1 21.3311 1.51047 8.33332 1.42274 3.06253 0.319587
1884 2 19.3746 3.24514 8.45555 -2.2655 -0.47674 -4.65377
1821 3 17.9892 -0.140367 6.64927 1.30273 -0.112632 4.85889
924 1 19.9015 -0.129075 4.75119 -3.67841 0.303541 3.38174
1892 2 26.7499 3.1149 8.40261 1.91643 -2.09954 0.345174
931 1 24.8546 1.48338 5.12812 -1.54193 -2.44924 -0.913105
988 3 23.2687 3.37553 4.69109 -4.42052 -1.33545 0.186203
1826 2 22.7815 1.36374 6.50721 -0.0799059 -1.48482 -5.29724
1889 3 25.1314 3.18225 6.85723 3.53564 2.41578 -4.0109
1888 3 23.2185 3.17532 8.25354 4.37343 5.9349 -1.05403
1831 3 24.7837 1.35619 8.53247 3.86241 2.90322 2.38906
992 2 26.7157 3.13169 4.99582 0.822743 9.94424 -1.16412
1830 2 26.7039 1.10823 6.51144 -0.98593 -4.53092 -6.48552
967 1 3.49205 5.29952 4.9146 -0.805338 -1.36955 -1.40958
1024 2 1.5965 7.04503 4.94019 2.59265 0.281748 -9.84051
1862 1 1.6277 5.32288 6.79722 1.60096 0.786589 1.10701
1925 2 3.45396 6.81512 6.72245 3.08844 0.605609 3.02949
1922 3 1.61966 8.49766 6.66341 -3.19421 -1.95395 -0.70422
1867 1 3.53126 5.28476 8.37852 0.979863 -4.08195 0.763422
1924 3 1.59459 6.98976 8.41822 2.70535 -2.46041 1.04973
1027 1 3.24389 8.63138 4.72383 -1.39143 1.71914 -1.822
1927 3 3.42236 8.38238 8.44416 1.05598 0.131937 4.38893
971 2 7.11638 5.22538 5.17006 3.82737 1.97741 2.49466
1028 1 5.53935 7.05029 5.04889 -0.463331 -1.23037 -2.94484
1866 3 5.18541 5.31771 6.56971 -2.57702 -0.706727 -4.87491
1929 1 7.08577 6.84617 6.83914 -4.22095 -3.88648 2.89604
1928 1 5.37231 6.9202 8.42775 3.64326 -3.23637 -0.342718
1871 1 6.76714 5.06168 8.58114 13.6569 -3.06945 -1.61103
1926 2 5.1192 8.69857 6.73811 -3.83272 2.24095 -4.78576
1031 2 6.98204 8.68053 4.69977 -3.39616 -1.26177 -3.03444
1870 2 8.85862 5.15491 6.94201 7.52485 0.924399 0.627473
1032 1 8.85244 6.88394 4.78282 4.90259 6.92182 3.16964
1932 3 8.89783 6.82682 8.50242 -2.33399 4.38578 0.218908
975 1 10.5552 5.27903 4.90825 -4.52928 -7.11768 -5.83873
1036 3 12.5391 6.88025 5.03778 0.430964 -2.58695 0.586403
1874 2 12.5825 5.1322 6.82778 -2.35382 1.99652 -5.373
1933 1 10.8219 6.87757 6.62505 0.901026 -2.26423 1.18898
1930 1 8.9149 8.45576 6.63624 -1.33647 -1.55282 -4.09793
1936 2 12.5308 7.07787 8.4447 0.97217 -1.79922 -3.66837
1935 2 10.8029 8.69977 8.47495 6.07925 -3.21977 -4.55994
1035 2 10.6721 8.69677 4.73389 -1.52784 -5.74764 -3.46492
979 1 14.2766 5.19544 4.61956 2.45554 2.83212 0.190883
1040 1 15.9427 7.16123 4.84743 2.77787 -2.49278 -6.89604
1878 3 15.7456 5.15467 6.53067 -6.57086 -0.940609 -6.093
1937 2 14.3625 6.99118 6.63471 1.11577 -1.13694 1.13315
1879 1 14.3044 5.29019 8.54755 3.33101 3.78555 0.555207
1940 1 16.1254 6.97779 8.64356 0.701427 2.88598 -2.3528
983 1 17.6706 5.19082 4.84513 -0.609192 2.85696 -3.2189
1941 2 17.6597 6.98737 6.77646 4.23192 4.66656 4.35726
1883 3 17.2483 4.91258 8.2947 -0.16336 2.24375 -7.25718
1939 1 14.3049 8.68974 8.23428 -6.60045 -3.99535 9.32057
987 2 21.3678 5.23498 4.84008 -0.363626 1.17472 5.74414
1044 2 19.4221 7.04685 5.02976 -1.04934 2.21562 4.30002
1882 1 19.4653 5.08312 6.58611 4.1674 3.34994 -1.99192
1945 3 21.477 7.06238 6.54888 0.193961 1.50228 -3.85363
1944 3 19.6022 6.73661 8.41062 -1.20738 -6.80719 4.36603
1887 3 21.2355 5.08056 8.43296 1.55529 0.376882 -2.13303
1947 3 21.1482 8.6514 8.68639 0.680528 -2.17455 -1.36069
1943 2 17.9716 8.60072 8.63857 -5.44305 -4.50575 -2.22467
991 2 25.1323 5.10386 5.00028 -2.5181 -2.2221 -0.116446
1048 1 23.344 6.82184 5.20303 -5.00589 -1.69455 -1.52515
1886 3 23.0292 4.97081 6.6742 8.69097 -1.3398 -1.85952
1949 1 25.2518 6.94127 6.73365 -1.73879 0.481571 4.88211
1891 2 25.0407 5.10468 8.59242 5.31905 -3.6401 -7.89892
1948 2 23.2237 7.03041 8.28752 6.61764 -0.00724181 -5.59192
1051 3 25.0816 8.69485 4.86409 -2.77411 4.51138 1.88671
1946 2 23.3214 8.75374 6.7313 -0.259926 2.38445 -2.83824
1951 1 24.9634 8.60214 8.70117 0.35705 6.96705 -2.03269
1950 2 26.707 8.57362 6.84655 -1.9042 -2.30761 -9.55962
1084 3 1.4898 10.4974 5.0138 -2.13278 0.537179 -2.23788
1087 3 3.2024 12.0818 4.92339 -2.31502 1.13531 -0.0449473
1982 3 1.51361 12.4634 6.63074 2.61312 -1.54088 -4.018
1985 3 3.35094 10.2051 6.59567 3.90174 -1.09023 0.878183
1987 3 3.30205 12.2481 8.29461 -4.17261 -0.0567161 -3.07851
1984 3 1.56889 10.337 8.50478 5.00071 3.15934 6.03843
1983 2 -0.0356151 12.2952 8.54004 0.639808 2.49131 -1.28773
1083 3 -0.111936 12.1027 4.89165 4.11989 0.114231 5.23253
1088 1 5.20811 10.2821 4.93894 -3.83327 1.31012 3.9264
1091 1 7.16093 12.0041 5.12837 2.1982 0.374119 2.53476
1986 3 5.18552 12.2406 6.84353 0.606722 4.01113 -0.566846
1989 3 7.00575 10.1517 6.85037 -1.94453 -0.433393 -6.64135
1988 3 4.94172 10.554 8.4033 -2.60604 -2.24431 1.0695
1991 2 7.08765 12.2531 8.38734 -7.88815 13.6333 -4.98492
1992 1 8.5389 10.5079 8.57937 0.82711 0.23948 -0.566262
1934 1 12.3916 8.79709 6.66028 -2.29199 1.35142 -0.411226
1990 1 8.9625 12.2292 6.80237 3.62863 1.75684 0.422573
1092 2 8.75234 10.1241 5.01655 -1.91461 1.77481 1.65868
1095 2 10.4664 12.1934 4.88406 6.19089 4.12986 -3.4731
1096 1 12.1409 10.6204 4.96116 -0.133709 3.00917 -3.19262
1993 2 10.6292 10.3556 6.75798 -4.73626 -0.141405 -0.272183
1994 1 12.4353 12.4745 6.69483 -5.10377 -1.18028 6.20622
1995 1 10.5612 12.3527 8.49863 1.18453 0.673718 2.15922
1996 2 12.5932 10.3638 8.51291 1.79942 0.886907 -8.04351
1039 1 14.2366 8.94958 4.78621 -5.02555 -5.43929 -1.69917
1938 3 16.0421 8.82129 6.74134 0.540629 -4.06936 1.18585
1099 1 14.0225 12.3146 4.98118 -1.10194 -1.31739 4.44411
1100 2 15.8819 10.4002 5.01838 5.82213 0.909503 0.511247
1997 3 14.1912 10.6771 6.3937 -1.17096 -5.58893 0.509308
1998 3 15.9487 12.2989 6.95658 3.05266 2.36456 2.5057
1999 3 14.2119 12.0342 8.61531 -2.30289 -0.998202 8.75423
2000 1 16.1556 10.2537 8.62348 -0.467524 5.5764 3.46852
1103 2 17.7155 12.4382 4.91571 -1.85387 1.91028 -2.45369
2001 3 17.7873 10.4445 6.77815 8.97184 -3.01905 -2.13817
1043 1 17.8965 8.86637 4.73764 0.959676 3.87774 1.48108
1047 1 21.4873 8.84092 4.69065 0.360127 -1.34482 7.23291
1942 3 19.6648 8.76286 6.74819 -0.823088 -0.367141 -3.28469
1104 2 19.7251 10.5693 4.86543 1.73759 -0.0763651 4.34098
1107 3 21.4564 12.1256 4.9568 2.66975 -6.06572 3.38896
2002 3 19.6275 12.3382 6.81921 -0.566832 -2.4188 2.75432
2005 3 21.5996 10.2577 6.66739 -0.756506 0.209354 -2.59734
2004 3 19.6394 10.6137 8.35663 -1.31809 -0.393071 -5.60127
2007 3 21.4935 12.2163 8.21028 4.50768 -1.16853 -2.61264
2003 2 17.9384 12.0785 8.72083 -3.00856 -0.769041 -2.34175
1108 3 23.2833 10.3207 4.64259 -1.66994 -4.25231 6.9546
1111 1 24.7716 12.1385 4.80813 1.438 -0.443784 -7.05878
2006 3 23.1276 12.2352 6.75272 1.43625 -2.61867 -3.39223
2009 3 25.0465 10.6361 6.55818 2.14105 0.179754 3.79127
2008 3 23.1202 10.3788 8.53836 -6.448 0.268649 6.42214
2011 2 25.0483 12.135 8.49367 2.5571 -2.28845 -0.59427
1144 1 1.36823 14.0782 4.97498 -3.31536 -0.0107379 -11.5478
1147 3 3.33019 15.9361 5.16094 1.42087 5.10514 3.781
2042 3 1.38685 15.9517 6.78946 8.27926 -3.43123 -2.98258
2045 3 3.20855 14.1148 6.5043 -3.43319 -2.98725 3.75021
2047 1 3.4456 16.1965 8.33429 -5.51751 -5.28531 -0.548374
2044 3 1.52015 14.3084 8.4601 -1.43543 -4.90515 -10.6065
1143 1 -0.210127 15.9099 5.05743 -2.41381 0.510022 -2.5731
1204 2 1.56983 17.5722 5.07716 3.62251 -4.76137 -8.96661
1148 3 5.21188 14.0175 4.9878 -5.59102 -6.05077 1.08906
1151 3 6.78624 15.8856 4.99566 8.46574 1.38621 0.165841
2046 2 5.28193 15.9552 7.07187 -0.591724 -0.949229 -0.949075
2049 3 6.99292 13.9954 6.68783 -4.08717 5.32099 4.40685
2051 2 7.11621 15.7159 8.61473 6.71561 6.23786 -0.752374
2048 1 5.22409 14.184 8.42175 -7.44142 -0.762503 -5.49791
1212 2 8.75284 17.4079 5.03886 1.94975 -4.82119 -2.25853
1208 3 5.21757 17.7255 4.85514 -2.34748 3.64804 2.6496
2050 1 8.58107 15.7127 6.66948 -3.49556 -0.837318 1.11342
2109 1 7.24248 17.6208 6.81012 2.72895 -2.35241 -4.21817
2052 1 8.83029 14.0144 8.52266 -0.16329 0.0429253 -6.52241
1152 2 8.80366 14.1671 5.13357 -3.41268 0.838445 -4.62712
1155 3 10.6 15.8073 5.11731 -0.419836 2.21579 -3.93581
1156 2 12.5199 14.136 4.74585 -3.54609 -4.35786 0.0435294
2053 2 10.8048 14.2003 6.9031 7.13866 -2.64316 -0.867137
2054 2 12.5581 15.5984 6.86626 3.52295 -0.0907171 -1.55568
2055 3 10.6326 15.7538 8.43215 0.712666 2.1294 0.0438277
2056 3 12.2838 13.879 8.70025 -10.1519 -2.62478 1.96148
1216 2 12.3671 17.5317 5.31204 2.35025 2.02186 0.0871115
2113 1 10.849 17.6897 6.74005 8.3333 4.90864 1.24456
2112 2 9.01567 17.5569 8.12084 4.02142 1.61578 -4.58482
1159 1 14.1301 15.8071 4.81023 -0.698135 4.20504 -7.63049
1160 2 16.0408 14.0812 4.88032 3.71723 0.110832 2.68467
2057 2 14.3397 14.014 6.65659 -2.35776 -3.70016 0.211887
2058 1 16.0596 15.7024 6.63339 1.70255 -0.57921 -6.56148
1220 2 15.879 17.3174 5.20734 0.0638918 -4.99883 6.21949
2060 2 16.0337 14.0506 8.46293 -3.71853 -5.7117 -4.29788
2120 2 15.9677 17.7527 8.48285 -1.76283 1.14128 1.45346
2059 1 14.2147 15.5332 8.37053 0.121054 3.64196 5.31421
2121 1 17.7729 17.6134 6.64852 5.6009 3.14081 0.364671
1163 2 18.2037 15.5546 4.99243 -0.616844 -1.79664 1.73018
2063 2 17.7969 16.0174 8.51425 -6.01033 4.44264 1.40337
2061 3 17.8384 14.2373 6.91111 -0.538966 -1.7524 0.0934718
1164 1 19.952 14.0385 4.95229 -2.16326 4.17848 4.77739
1167 2 21.3748 16.1016 4.9797 1.25273 -3.28273 0.881595
2062 1 19.7534 15.9185 6.80378 -4.73582 -9.4589 -0.0834245
2065 2 21.4072 14.176 6.70854 -5.93415 -6.51202 -5.96774
2064 3 19.709 13.9907 8.43145 1.05983 1.86367 -3.76512
2067 2 21.6114 15.6834 8.50881 1.38566 2.73483 1.92849
2124 3 19.5855 17.6275 8.60751 0.380069 1.58083 -5.43635
1224 2 19.5961 17.6719 4.81779 -2.04592 -0.210368 2.77637
1168 3 23.2866 14.0955 4.96294 0.338267 0.610185 3.0988
1171 2 25.0132 15.8871 5.00355 6.63372 -1.10851 2.74707
2066 1 23.1567 15.9881 6.73992 0.273652 1.79828 2.33502
2069 3 25.0372 14.2241 6.6347 3.69335 -4.09722 2.39975
2068 3 23.2322 13.8285 8.43645 -1.70931 4.93112 3.96158
2071 2 24.9514 15.7714 8.20933 1.22583 3.27536 2.27451
1172 2 26.7027 14.2204 4.78725 1.12404 3.44429 10.8613
1228 2 23.3364 17.7107 4.97129 -4.51637 0.732159 -0.273331
2129 1 25.1818 17.726 6.62975 3.31457 -2.44498 1.33954
2161 3 -0.252026 21.2226 6.65773 -7.48316 -3.83037 2.64715
2105 1 3.44634 17.7579 6.63476 0.188445 -3.42128 1.18446
2104 2 1.71879 17.8773 8.57179 -2.1551 -4.95923 7.67269
1207 3 3.33874 19.8116 4.97287 0.19577 -1.92976 -4.43975
1264 3 1.37546 21.3576 5.00892 1.36376 1.61887 7.02097
2102 1 1.47975 19.4371 6.76203 9.24939 -1.55531 -3.59294
2165 3 3.53411 21.4751 6.69892 9.93368 4.04883 2.48999
2107 2 3.29474 19.6203 8.4309 -4.3138 -1.43954 -4.54946
2164 1 1.66967 21.3694 8.42044 -2.87768 -0.0445664 -2.69302
2101 2 0.0835611 17.8091 6.93377 1.33529 -3.15804 2.93886
2108 2 5.21689 17.7565 8.58116 0.406719 -1.07489 -0.238369
1211 3 7.13951 19.63 4.94006 -5.07832 -2.54039 -1.41456
1268 1 5.32169 21.2632 5.01617 0.473049 -7.90432 1.25471
2106 2 5.40668 19.4071 6.76617 -1.32578 2.81288 3.91119
2169 2 7.03873 21.3775 6.93628 -1.43291 2.31834 1.99775
2111 1 7.29539 19.5796 8.69867 -1.55675 -3.14321 1.9989
2168 1 5.11237 21.1778 8.48613 5.03899 -0.44129 7.17252
2110 2 8.94845 19.5463 6.65633 -2.35931 -0.755079 1.42382
1272 2 8.98138 21.2788 4.99317 -3.18752 -5.76835 2.95274
1215 3 10.495 19.3803 4.71877 -0.641351 0.294091 3.72207
1276 1 12.3956 21.1896 5.10189 -2.32317 -0.343585 1.47887
2114 2 12.4008 19.691 6.99477 -0.102322 3.38252 1.42348
2173 3 10.5445 21.3444 6.7455 -3.23727 -1.66681 -0.64176
2115 1 10.4399 19.6069 8.59698 3.80388 -0.180186 4.30597
2172 1 8.77132 21.4093 8.4748 -0.366129 2.32251 -3.88062
2176 2 12.5487 21.2751 8.57215 1.17216 3.73902 -0.955645
2117 3 14.0315 17.8801 6.99606 2.46943 -0.717762 -4.12286
1219 1 14.1451 19.4443 5.18065 4.89969 1.96282 -4.03583
1280 3 16.0172 21.4479 5.16804 4.443 2.55874 -1.63812
2118 2 15.8932 19.4154 6.75369 -7.48962 1.37423 1.22971
2177 1 14.1891 21.1363 6.86068 -5.77343 -0.0926806 4.78004
2180 1 15.893 21.4794 8.38186 -3.03926 3.74333 2.86823
2119 3 14.3548 19.3786 8.69499 3.05979 1.73404 2.04382
1223 1 17.4026 19.3171 5.06334 2.86668 -8.16225 -2.84388
2123 1 17.6293 19.5831 8.48015 2.95392 2.36913 1.51746
2181 3 17.7805 21.5164 6.72363 2.35376 1.65113 -0.246931
2125 1 21.384 17.8487 6.65292 -1.99978 -3.15572 2.51895
1227 1 21.3918 19.4379 4.78913 7.45837 0.118106 -6.63549
1284 2 19.4212 21.0825 4.8687 -0.0520285 5.24947 1.52071
2122 2 19.5202 19.5035 6.72902 6.15328 -8.21558 3.1687
2185 2 21.2443 21.328 6.53285 8.9104 2.05569 -3.64131
2127 1 21.2048 19.6281 8.29082 4.56207 2.41671 -0.0900739
2184 2 19.4904 21.316 8.65194 1.2637 -8.6728 -5.91028
2128 2 23.2975 17.789 8.53995 -4.59378 0.285644 -1.46734
1231 2 24.9415 19.5195 4.64429 2.84415 -1.68076 -0.97003
1288 2 23.1111 21.3845 4.92588 -1.69279 8.90181 -0.767888
2126 1 23.1294 19.6736 6.67763 3.53466 -7.8865 4.18926
2189 2 25.0317 21.1483 6.86047 4.74274 2.69673 -6.37077
2188 3 23.0209 21.4831 8.56867 -1.1334 3.04643 0.432652
2131 2 24.7019 19.5673 8.61609 -2.44313 5.44428 -2.83364
1292 2 26.7522 21.2038 4.72869 5.48299 4.89301 -3.06994
2130 1 26.6616 19.527 6.71943 -6.18616 -3.51431 2.41459
2163 3 -0.0799836 23.2466 8.36399 5.98776 -1.94294 -1.02767
2221 3 -0.165434 24.9477 6.67173 -3.41043 5.70523 1.38317
1267 3 3.46949 23.2748 5.07458 7.30906 -1.91564 0.0554661
1324 2 1.58936 25.1103 4.9078 -7.04075 -1.40869 1.61539
2162 3 1.71497 23.1969 6.59067 -0.551915 3.45029 2.346
2225 3 3.41465 24.7278 6.98838 3.59339 -3.5901 -1.34116
2222 2 1.8235 26.6162 6.61591 3.3305 6.60884 -0.819095
2167 2 3.28514 22.9241 8.679 -10.9893 -4.48204 0.346567
1327 1 3.66609 26.74 5.11661 2.6827 0.927693 0.752986
1263 3 -0.178234 23.1194 4.82754 7.64682 -6.0733 -0.688022
1271 3 7.0879 23.2536 5.13593 -1.88501 -0.00489215 -4.52049
1328 3 4.98613 24.9642 5.07351 5.85672 -2.86752 1.4126
2166 3 5.31082 23.105 6.907 1.91254 0.939996 -3.79889
2229 1 6.91782 25.1134 6.65323 -0.360837 5.69349 -5.44698
2171 1 7.09132 23.3055 8.50683 1.52772 4.24187 -1.25994
2228 3 5.29978 24.9675 8.7464 -3.70502 2.08674 1.10219
2230 2 9.26891 26.538 6.93823 2.45762 3.17156 -2.12866
1332 2 8.77045 25.0488 5.29047 -6.12722 -0.0363751 1.3329
2170 1 8.9379 23.1206 6.70182 -0.310741 -0.52175 -3.42877