ITEM: TIMESTEP
16800
ITEM: NUMBER OF ATOMS
13500
ITEM: BOX BOUNDS pp pp pp
-2.5993239254534828e-01 5.3779932392544630e+01
-2.5993239254534828e-01 5.3779932392544630e+01
-2.5993239254534828e-01 5.3779932392544630e+01
ITEM: ATOMS id type x y z vx vy vz
7 1 3.30833 1.36108 1.77292 2.44917 2.44919 1.30936
64 2 1.27672 3.28788 1.70286 -1.80964 -3.96107 0.869046
902 1 1.38757 1.68768 3.26647 2.98444 -0.162942 8.08169
965 2 3.41869 3.43149 3.43155 -1.30908 -3.96156 0.219718
2 2 1.8045 1.39752 -0.114614 3.7997 1.20642 -3.59188
65 1 3.27599 3.4444 0.0775106 -1.95027 2.45463 5.11794
901 2 -0.0932612 -0.161141 3.56796 3.73021 2.30233 3.91449
1 3 -0.0104892 -0.102921 -0.176676 5.35965 -3.55737 4.12575
11 2 6.92621 1.58297 1.5229 -1.03873 0.139453 2.76721
68 1 5.27921 3.06848 1.65494 -6.30651 1.94658 -2.71464
906 2 4.95051 1.58625 3.3938 3.85196 5.1331 0.489543
969 1 6.75395 3.64111 3.5236 -1.5599 1.1214 6.13944
72 1 8.66717 3.44346 1.54529 7.09815 0.533112 -6.55665
6 2 4.81839 1.65493 -0.174088 1.11917 5.52538 -5.02739
9 2 6.80737 -0.175259 -0.254999 -4.7373 -1.23435 0.072637
910 3 8.46938 1.66256 3.25857 -6.94795 -3.25084 -2.94857
8 1 5.0483 -0.115437 1.72953 4.29765 1.32466 3.79087
10 1 8.46459 1.65152 -0.0423389 4.72586 -0.0769063 5.24558
15 3 10.6257 1.42711 1.65065 10.905 -6.90904 -0.598174
76 2 12.4774 3.50839 1.71548 1.82948 -0.217449 -1.72385
914 3 12.4158 1.54511 3.25862 -1.57571 3.65508 -0.0461991
973 1 10.3276 3.25662 3.32006 5.6248 3.96814 7.05276
14 1 12.4082 1.59223 -0.124523 0.878809 -1.67668 4.98935
73 2 10.7749 3.37798 -0.00719718 3.43448 1.84756 8.59909
13 3 10.7399 -0.236046 -0.256467 -3.06028 3.20424 -2.21583
19 2 14.399 1.29519 1.79991 -3.6153 1.40673 1.92612
80 2 15.9373 3.24899 1.67365 2.25653 4.83058 -1.45181
918 3 15.9666 1.63767 3.7255 0.995787 -1.82409 0.509802
977 1 14.2982 3.16368 3.37425 2.50042 7.34676 -3.32466
20 1 15.8614 -0.270071 1.69746 -10.1168 -6.09313 -2.22909
17 1 14.101 -0.0138561 -0.191155 -2.6676 8.01049 -1.12507
23 3 17.5837 1.43723 1.54664 -3.7077 -3.71976 -4.0893
81 2 17.5882 3.2884 -0.165579 2.70748 1.63643 2.36314
77 2 14.0965 3.43475 -0.205765 1.92989 4.85627 11.2729
981 1 17.8712 3.27403 3.34023 -5.69473 3.89663 3.3168
27 3 21.3077 1.58372 1.35566 1.74798 1.30185 6.93202
84 2 19.3366 3.40358 1.2974 -1.75493 2.52654 -0.670826
922 1 19.3981 1.41569 3.28106 1.81032 -0.998939 5.31104
985 1 21.1082 3.28748 3.27206 -2.43551 -3.10301 0.542567
24 3 19.6084 -0.242965 1.49142 0.867179 -4.74445 4.80851
31 1 24.9495 1.52284 1.51939 3.28509 3.09472 3.67184
88 3 23.0491 3.28533 1.58033 2.1123 5.11785 -7.98374
926 2 23.1985 1.54114 3.35159 -0.644926 -0.592532 5.4265
989 1 24.7897 3.18443 3.45136 1.30369 -0.445391 0.167775
929 3 24.98 -0.247969 3.46394 -0.139719 -0.169915 1.50231
67 3 3.41421 5.1131 1.72229 -1.2444 1.5018 -6.6021
124 3 1.39713 6.8599 1.68287 -1.71457 2.44944 -2.0704
962 1 1.45253 5.1476 3.67429 3.55938 1.63265 0.487414
1025 2 3.27574 6.81548 3.61092 2.68967 6.89814 7.38377
125 3 3.40726 6.76732 -0.133076 10.5786 1.07389 -4.25317
62 3 1.5072 5.06673 -0.0240014 1.33213 0.903223 1.55383
127 3 3.1276 8.50204 1.67506 3.07174 -0.169265 0.243481
122 1 1.52141 8.68343 -0.133851 -0.583116 -2.93632 3.69003
121 2 -0.249014 6.91543 -0.248105 1.19826 -2.17644 -7.0018
71 2 7.03656 5.02647 1.57895 -0.506728 -0.99832 -1.82067
128 1 5.31825 6.9388 1.59374 -1.43919 -4.99836 -0.136545
966 2 5.30906 5.32928 3.28303 -0.682035 1.74662 -3.82612
1029 1 6.80659 7.10697 3.48758 -2.5832 -1.87977 -0.54914
131 2 6.99599 8.73565 1.5979 -4.26437 5.21849 2.40306
970 2 8.74247 4.88056 3.47303 -0.780668 2.56435 -5.64778
126 2 5.05617 8.58917 -0.142124 0.302502 12.8278 0.316677
66 2 5.16757 4.94428 -0.190923 2.68258 0.706004 -1.98482
1030 2 8.53414 8.49387 3.1778 -0.66353 -4.55733 -8.06513
129 1 6.67724 6.72732 -0.151346 2.04272 2.34875 7.07043
132 1 8.74728 6.79779 1.55824 -7.62381 1.31572 -0.182419
75 1 10.5545 4.97514 1.53327 8.12274 0.398766 1.57088
136 1 12.5457 7.19679 1.25645 3.41901 6.055 6.69162
974 2 12.5481 5.25323 3.18285 2.34281 0.792701 -3.72428
1033 1 10.9033 7.02137 3.18241 -1.79651 -9.21791 -5.55184
130 3 8.87838 8.61406 -0.120361 -2.55286 -2.39157 2.40871
133 2 10.7003 6.67621 0.051893 -1.94886 6.59622 7.49433
74 1 12.687 5.14905 -0.230048 0.964895 6.70509 4.62495
79 3 14.3692 5.2435 1.58241 0.604662 3.30367 -2.97787
140 3 16.2127 7.17082 1.60206 -5.48836 -1.28704 -2.56553
978 1 16.2673 5.24093 3.38788 -0.980292 1.08378 4.04443
1037 1 14.2188 7.07534 3.29787 3.90076 1.78608 -0.81014
78 3 15.979 5.02475 -0.180655 6.34565 -1.38079 -3.23266
83 1 17.7224 5.08747 1.80056 6.93624 0.144403 1.64986
1038 1 16.2001 8.72883 3.35548 -5.31414 3.73382 2.39926
1041 2 17.8552 6.88796 3.27532 1.5202 -8.9859 1.00087
87 2 21.1371 5.13413 1.53032 5.81407 0.322477 -5.52169
144 1 19.5527 7.10095 1.36942 0.233043 7.99019 -5.73259
982 1 19.4836 5.13872 3.18575 0.0623955 -1.49333 2.92459
1045 3 21.0766 7.06937 3.46175 3.2634 -3.04832 1.74606
147 2 21.3942 8.4009 1.33699 2.88647 -10.5217 4.86913
82 2 19.029 5.28087 -0.163962 -3.45874 1.23219 1.24401
91 2 24.6263 5.22067 1.45146 6.00506 -4.88412 -2.69426
148 1 22.9937 6.81368 1.69662 -7.02683 0.667367 -4.14702
986 2 22.9766 5.0073 3.50462 -1.08852 3.64646 2.95731
1049 1 24.8334 6.89961 3.49716 1.85159 7.01998 -0.0201054
990 2 26.5526 5.24368 3.5321 2.4275 4.84662 -2.31584
151 1 24.9573 8.60398 1.60201 3.62085 2.61247 3.25115
149 1 24.8442 6.85991 -0.176471 3.78467 -1.03449 -3.74397
1022 3 1.49799 8.83631 3.48365 -3.43346 -1.07021 1.86399
184 1 1.36719 10.5429 1.31499 2.04255 2.51034 -1.06459
187 1 3.4449 12.0129 1.39375 7.62363 -3.98158 2.22916
1082 1 1.3904 12.2976 3.16379 -0.141051 1.77133 -1.07033
1085 2 2.99488 10.5296 3.48625 -2.33511 -3.06126 -0.12388
182 2 1.54527 12.3443 -0.228954 -9.17989 0.751278 -3.04563
1026 2 5.14844 8.94413 3.3962 -2.16287 0.977154 -0.477613
188 1 5.10908 10.3005 1.4502 3.10162 0.248853 -0.138666
191 2 6.96171 12.2261 1.62569 -2.582 -0.759791 -0.944785
1086 2 5.09994 12.064 3.32667 4.84423 -0.922435 3.66143
1089 1 7.15991 10.4448 3.32066 0.0122589 -7.89274 -1.93399
189 1 6.80666 10.5055 -0.159637 -3.7064 1.93025 2.84998
186 2 5.29301 12.0755 -0.248044 -2.12802 -2.36588 5.313
192 1 8.85431 10.4726 1.49084 -1.84149 -0.771736 -3.29279
135 2 10.6985 9.01979 1.64887 -8.67885 0.939468 0.751434
1090 2 8.86515 12.6104 3.26317 1.44988 -3.16726 6.6736
1034 1 12.3133 9.00435 3.29407 -3.73535 -4.19717 4.53038
195 1 10.53 12.1172 1.35775 7.8145 0.157447 -2.28268
196 2 12.6732 10.5761 1.44201 1.90617 -8.62603 -3.52015
1093 1 10.5922 10.6239 3.19725 3.85994 -0.384775 3.96888
1094 2 12.4788 12.4266 3.15289 -13.6781 1.23935 -0.449898
134 1 12.3709 8.96913 -0.217931 -0.506782 0.396932 -0.47414
139 2 14.3118 8.77118 1.57457 3.73804 -2.99215 -2.77826
199 1 14.4221 12.1111 1.64905 -1.45998 5.20026 0.258774
200 3 16.0005 10.4198 1.71037 2.40601 1.05788 -0.754512
1097 1 14.2303 10.4624 3.47278 -5.05996 -4.44436 -2.45052
1098 2 16.1704 12.1341 3.47722 -3.86889 -5.81871 0.2596
198 2 16.0845 12.2454 -0.222216 13.2163 -6.4525 -5.71397
203 1 17.74 12.2876 1.61211 -4.12229 5.6186 3.27443
1101 2 17.8394 10.6252 3.56586 3.36911 -5.12103 -0.715257
143 1 18.007 9.00107 1.35701 7.87762 -4.49298 -8.57016
1042 1 19.5021 8.91998 3.10729 5.83658 -4.30618 -2.41892
204 1 19.6146 10.8242 1.45955 -7.1933 1.76692 5.97725
207 2 21.3382 12.5249 1.57574 -7.04957 6.26933 -1.55098
1102 1 19.4739 12.5812 3.30285 3.47147 2.27153 -2.85748
1105 3 21.3995 10.6874 3.21919 -4.77048 -1.5384 -2.89919
205 1 21.3505 10.7197 -0.0221696 3.58219 -2.27605 -3.68564
1046 2 23.1498 8.89424 3.3111 -0.254454 -2.86113 -4.04744
208 1 23.0194 10.4938 1.48034 2.60625 -0.706797 5.06986
211 1 24.8879 12.4911 1.55565 1.95098 -3.45685 2.3899
1106 2 23.1158 12.5541 3.34431 -0.535086 -0.205664 1.02582
1109 2 24.7766 10.4249 3.27811 3.85694 -1.27298 -1.25708
209 2 25.0648 10.6154 -0.0581357 -1.75196 -5.24966 -6.77775
1110 2 26.6669 12.2911 3.32583 -1.10342 -9.35455 -12.5821
206 2 23.2646 12.3992 0.0193618 -0.69848 8.97591 5.77559
146 3 23.1437 8.84623 -0.256621 -1.65093 2.93812 0.476965
244 2 1.57953 14.1366 1.41442 -4.70149 9.07986 6.40771
247 1 2.99849 15.824 1.56293 -5.81156 -7.51239 1.14045
1142 1 1.26756 15.7712 3.48655 1.56428 -2.03055 0.0776656
1145 2 3.45977 13.7899 3.04156 0.447911 -0.691485 -2.00627
1205 2 3.31127 17.6616 3.64515 0.403279 -0.442755 2.03524
245 2 3.72855 14.3116 -0.185182 -3.73833 8.72864 -4.05698
243 2 -0.0210848 15.7764 1.70673 -5.47855 -1.86707 4.20044
301 3 -0.238064 17.447 -0.140793 -3.05103 -0.0820621 0.973437
241 1 -0.207225 14.0557 -0.207726 4.34899 -2.4709 3.83781
305 2 3.54104 17.3989 -0.198633 0.241102 -1.8298 4.91233
248 3 5.30263 14.144 1.46076 -4.59256 0.986148 2.7246
251 2 7.07103 15.8892 1.67404 -3.21631 11.812 -5.36562
1146 3 5.01238 15.7273 3.36813 4.25244 3.3618 9.58722
1149 1 7.08529 14.084 3.34389 -3.23143 -0.535667 -3.891
308 3 5.24429 17.6618 1.68622 -1.57232 -3.57513 5.54421
309 1 7.103 17.7045 -0.160295 -2.93052 3.34773 2.18375
246 3 5.37341 16.068 -0.200603 -2.511 1.08384 1.66904
1209 3 7.01526 17.6857 3.28603 -0.979216 0.580015 -3.02745
249 1 6.79043 13.9317 -0.206785 -2.4748 6.59512 0.90884
1150 1 8.92366 15.7026 3.06373 -1.00581 1.3895 6.43685
252 3 8.80386 13.9415 1.34983 -2.22545 2.80891 -2.44345
255 1 10.3369 16.0449 1.36565 -6.05842 5.45604 -1.04294
256 3 12.6399 14.1606 1.38592 5.57691 0.169715 9.69684
1153 3 10.772 13.9993 2.98489 1.54456 -3.52856 3.40982
1154 2 12.6818 16.0556 3.17115 4.47935 -3.58666 -0.0354354
1213 1 10.4631 17.7333 3.41908 3.04317 4.60707 3.1729
316 2 12.4241 17.5805 1.6146 0.289827 3.05344 -2.68232
250 3 8.75724 15.8786 -0.239931 -1.46036 0.301013 -0.659076
313 2 10.4894 17.7537 -0.252627 2.28255 2.54318 -0.156205
259 3 14.4079 15.9792 1.385 0.703835 2.33272 -2.07038
260 1 15.9122 13.8784 1.40521 1.80018 2.28985 0.268056
1157 2 14.1271 14.1986 3.32092 -7.06928 7.30687 1.46791
1158 2 16.036 16.1332 3.14458 -0.317433 9.85322 0.466667
263 3 17.5652 15.7961 1.30579 3.15897 6.68681 -2.26777
320 3 16.0432 17.6327 1.54338 -2.63873 3.65835 -10.0839
1221 1 17.7337 17.7368 3.37193 -2.64042 2.37745 -6.62112
1161 2 17.8747 14.1751 3.24946 5.60545 -2.97063 -3.83533
264 3 19.3458 14.2003 1.48588 -0.204335 0.982207 2.40303
267 2 21.3462 16.2865 1.67889 1.63741 -3.25424 -4.45268
1162 1 19.3633 16.0035 3.42307 0.734782 4.8345 -2.7675
1165 1 21.1332 14.3725 3.21343 8.66185 -0.883651 -4.89703
262 1 19.8475 15.8714 -0.121269 2.09389 2.03603 -8.05126
265 3 21.2263 13.9925 -0.251754 -9.01983 -2.92358 0.929437
272 1 26.6335 14.1361 1.70842 0.790908 -1.68342 3.0425
268 1 23.0066 14.3045 1.63589 1.14827 -0.527888 -1.87435
271 1 24.937 15.9822 1.34752 3.65466 0.286734 -0.717192
1166 3 23.2877 16.2029 3.2744 8.88669 4.42325 5.70452
1169 2 24.8555 14.3611 2.93643 6.47671 2.35458 0.24026
1170 2 26.5352 16.1373 3.33301 -2.01327 0.257356 -0.367506
269 2 24.9881 14.1822 -0.15856 -4.86948 -2.25552 -6.82758
304 3 1.48128 17.7937 1.59179 -3.89282 2.73773 2.52081
1261 1 -0.18086 21.1847 3.43903 -1.93214 -2.36816 7.60609
307 3 3.37138 19.2468 1.50658 -1.77676 -3.35324 -2.59029
364 2 1.4638 21.0418 1.4447 -2.94563 -0.486894 1.14023
1202 3 1.50591 19.4927 3.27722 0.891409 1.21914 -0.130277
1265 2 3.07051 21.2252 3.14561 -1.65451 -1.97986 0.505666
365 2 3.37603 21.0634 0.185557 -1.73454 -2.06587 -1.70925
303 2 -0.211169 19.3967 1.67178 1.7251 -8.9274 2.93213
312 2 8.66084 17.8204 1.3973 5.68025 -0.87223 -0.775563
311 2 7.02973 19.4947 1.4937 -3.78781 4.79798 0.869403
368 1 5.205 21.1865 1.55645 2.36401 0.420772 -1.44289
1206 3 5.1956 19.3758 3.43435 -2.5563 -8.34846 0.364635
1269 2 7.01615 21.143 3.43868 -5.10024 -4.96623 3.84605
306 1 5.43813 19.4165 -0.118989 -6.07721 -1.96922 -8.17448
372 3 8.66377 21.3372 1.70421 0.528376 -3.61489 -3.40493
1210 1 8.74435 19.5671 3.30434 -3.96435 -7.48274 -4.7337
315 3 10.5481 19.399 1.79948 0.276742 -4.25786 7.17702
376 2 11.9515 21.2844 1.43279 0.903709 -2.67782 0.00718579
1214 1 12.2027 19.5294 3.66778 5.47215 -3.12666 -4.15732
1273 3 10.6187 21.4016 3.34435 -2.93755 1.61332 -3.92639
373 1 10.355 21.3599 -0.173513 0.873181 -3.81954 -9.47555
1217 1 14.181 17.8036 3.31192 0.726097 0.963728 3.55285
319 3 14.0777 19.5252 1.63093 0.396878 4.77631 -1.30462
380 3 16.2395 21.3729 1.59153 2.3954 0.504173 -1.8379
1218 2 16.239 19.4332 3.51797 0.0452885 -3.57734 -1.0481
1277 2 14.2481 21.1523 3.25898 -3.40274 -0.818789 -3.51485
318 3 15.8755 19.6597 -0.203694 1.67926 -4.29741 -2.80932
377 1 14.135 21.3674 -0.191769 -2.00687 -1.75479 0.469475
324 2 19.7355 17.8322 1.52913 9.40175 -4.03956 3.58178
323 1 17.7629 19.4317 1.72631 -0.833342 1.08776 0.812648
1281 1 17.932 21.4037 3.29805 -4.78615 0.120874 3.3912
1225 3 21.3188 17.7749 3.55876 0.0218101 -5.47226 0.212797
327 2 21.3137 19.4742 1.35637 -0.376066 -4.71592 -7.32818
384 2 19.7855 20.9936 1.48316 -2.78419 0.475816 -3.06634
1222 1 19.5757 19.5105 3.55148 4.37734 -0.571472 -1.41444
1285 3 21.5935 21.2113 3.18582 -2.1482 -1.72006 -4.79696
322 1 19.4241 19.3846 -0.244889 4.93458 -0.973047 -3.16439
385 1 21.4033 21.2911 -0.212894 2.23574 -1.36662 1.93486
332 1 26.5792 17.7779 1.40952 5.78676 2.36902 -0.374113
1229 2 24.8522 17.9859 3.25338 -1.5767 -1.56482 -3.64656
328 1 23.5081 17.8383 1.39649 1.45138 0.285124 3.23616
331 2 24.9823 19.5292 1.30579 2.24575 -3.2061 4.01464
388 3 22.9678 21.318 1.47965 6.86035 -1.14757 6.46129
1226 1 22.9891 19.4331 3.29472 -3.59848 2.14557 6.46803
1289 1 24.6615 21.181 3.17154 1.37087 0.752494 -0.886184
392 3 26.484 21.3298 1.40303 -1.41386 0.318569 -0.851177
1321 2 -0.089615 25.0237 3.38861 3.14097 3.14904 -1.97384
367 2 3.58141 23.0858 1.49115 -5.98109 1.84541 -4.28774
424 3 1.61774 24.9097 1.48749 0.367321 -4.72456 -0.529654
1262 1 1.54147 23.3308 3.1959 1.7497 1.77156 1.13865
1325 3 3.43974 25.1016 3.24261 -0.34973 0.539299 -3.45791
363 3 -0.101648 23.0674 1.19126 -5.13708 3.69596 -4.00327
427 1 3.43566 26.5755 1.33741 -2.77147 3.15049 -4.02939
423 3 -0.153643 26.7531 1.34562 0.0638325 0.0901146 -4.12482
371 1 6.98299 23.3562 1.61844 5.99612 -5.9014 1.1333
428 2 5.31386 25.1276 1.56772 -2.85505 1.75826 2.9331
1266 1 5.23148 23.0388 3.27168 0.615908 -0.419488 6.19936
1329 2 7.28503 25.1299 3.42533 -2.19087 -5.74657 4.66462
366 1 5.12227 22.9418 -0.249846 1.92053 1.77181 -5.41274
1270 2 8.67432 23.2361 3.12553 1.46517 0.525023 6.1459
1326 3 5.25888 26.7402 3.47073 -2.91754 -3.18995 4.47519
432 3 8.9903 25.2028 1.6251 5.55152 -0.46567 -1.85301
375 1 10.4118 23.2229 1.53445 -4.06804 0.668318 -3.67309
436 2 12.3948 24.7478 1.57502 2.14543 -1.5774 0.483412
1274 1 12.3099 23.0832 3.42056 2.55256 0.147999 -0.782208
1333 1 10.6278 24.822 3.41748 1.83829 -3.98382 -4.15377
433 2 10.4996 24.9332 -0.178067 2.8861 -0.449976 -6.03903
374 1 12.2169 22.8687 -0.137523 -0.425036 1.35503 -5.42768
435 1 10.8364 26.6307 1.61913 -7.41892 -1.13348 -1.92513
379 1 14.2057 23.1041 1.73798 8.02856 1.49219 5.07252
440 3 15.8959 25.1353 1.61501 -0.410031 -8.85137 -2.52551
1278 1 16.1258 23.3314 3.32891 2.79999 2.572 -0.32954
1337 1 13.9344 24.8637 3.4772 -6.33984 -1.62195 -0.61448
439 2 14.0884 26.6786 1.53275 -6.61757 3.53954 3.12178
378 2 15.8435 23.2379 -0.0897568 1.56639 -1.67125 1.05289
441 2 17.4635 24.8919 -0.17166 -0.793588 2.44519 -1.48223
1338 2 15.6951 26.6484 3.42604 2.16308 2.66108 9.66499
437 1 14.045 24.7843 -0.103832 -4.14384 -4.0834 4.23311
443 3 17.6165 26.647 1.68166 -1.61137 1.74913 0.947291
1342 3 19.6772 26.6897 3.1368 -3.69285 -3.91929 -2.60597
1341 1 17.8754 24.9534 3.37939 0.476617 -0.276614 -10.8438
383 3 17.753 23.3136 1.64183 -1.45664 -1.35225 -0.971635
387 2 21.2664 23.1029 1.27291 -5.73182 -10.1423 4.29469
444 3 19.6407 25.1073 1.53157 1.58465 7.15482 0.497783
1282 3 19.6598 22.9608 3.47757 -6.94767 -2.2461 5.3153
1345 3 21.3082 24.7078 3.28354 0.602666 -5.09013 -2.48339
382 1 19.3953 23.194 -0.186555 -1.4803 2.3184 -3.67676
447 3 21.2247 26.6653 1.43601 4.57857 -0.371408 -2.22795
442 3 19.4926 26.727 -0.246921 -0.492314 0.874413 3.75793
391 3 24.7781 23.1793 1.40472 -0.690476 0.420372 -3.81712
448 3 22.9927 24.6527 1.43282 7.33268 -0.373985 0.629932
1286 3 23.1824 22.9934 3.40855 4.82689 3.84061 6.25524
1349 1 24.7735 24.9843 3.27023 6.04211 -3.93236 -4.10017
452 1 26.4725 24.9092 1.41081 1.69891 -3.05821 4.54227
1290 3 26.7644 23.3111 3.36772 6.74471 1.32647 -7.15974
451 3 24.9526 26.5846 1.48689 3.04599 -2.84271 4.83618
1346 2 23.0824 26.7015 3.32577 -0.756248 -5.08503 -3.23423
1350 2 26.7363 26.4923 3.30282 -5.5168 6.12803 2.40668
907 3 3.34534 1.6184 5.23921 -0.0117343 -3.90122 0.0258363
964 2 1.38849 3.31775 5.08457 -3.27751 1.73989 -5.39082
1802 1 1.502 1.60798 7.1145 -2.2942 4.22481 2.48302
1865 2 3.31251 3.35296 7.25883 2.75084 -7.55279 -8.49629
1861 1 -0.154417 3.41863 7.00701 -0.596944 1.26208 0.440647
903 3 -0.071331 1.55092 5.15923 7.2614 4.55447 2.87897
1807 1 3.26936 1.39983 8.72111 1.28375 1.17108 -1.22052
911 3 6.92635 1.2713 4.96477 -4.88141 1.09254 -3.69323
968 3 5.10446 3.17047 5.19519 -3.1065 -6.02145 -1.04653
1806 2 5.19361 1.27724 6.9928 3.18811 8.31294 -3.99814
1869 3 7.09557 3.16968 6.76411 -3.11012 -6.05556 -6.93334
1811 3 6.96281 1.25694 8.63965 -1.09381 2.31021 0.482686
1868 2 5.15797 3.45504 8.65068 4.00126 5.42354 2.02037
1810 3 8.48989 1.1789 6.78854 0.00434734 8.82786 -0.358113
1872 2 8.94733 3.39504 8.4045 4.51928 1.22195 -6.32409
972 3 8.76357 3.19272 5.10923 -3.28629 1.66635 -1.90921
915 3 10.5109 1.45293 4.96396 -0.0716518 -2.27462 2.1141
976 3 12.2931 3.39009 5.1053 -0.0283485 2.16708 1.09115
1814 3 12.265 1.53275 6.93953 0.327995 0.993334 5.95136
1873 1 10.6685 3.59078 6.88753 -8.09606 2.19908 6.52103
1815 3 10.4048 1.69659 8.61527 -4.88491 -1.19116 7.05271
1876 2 12.357 3.63976 8.68433 -0.0711515 -0.967827 -0.0066876
916 3 12.4093 -0.123134 5.17679 3.3284 -0.566987 -1.76718
919 1 14.0957 1.46359 5.25863 0.518716 -3.82207 -0.155945
980 2 15.9929 3.46541 5.13142 -4.92421 1.876 -2.16318
1818 2 15.9555 1.40922 6.86217 6.19352 -2.59071 -6.26678
1877 3 14.1119 3.40405 6.69783 0.252158 5.46776 5.5368
1819 1 14.2754 1.82496 8.62285 -1.52551 -2.99093 0.313268
1881 3 17.7228 3.40976 7.00049 1.8683 -5.7561 2.01766
1880 3 15.9059 3.46874 8.67367 -1.24166 -9.97257 2.02123
1821 2 17.6314 -0.242881 6.91965 -3.06429 -3.92896 -1.87541
1817 3 14.1612 -0.171892 7.19619 -3.25461 2.19294 6.31217
923 3 17.714 1.24825 5.25627 -1.56208 0.997969 7.53066
927 1 21.1235 1.67233 5.14188 -5.94646 -0.236782 -3.0079
984 2 19.3991 3.37508 5.21646 -2.01185 3.05749 -1.05757
1822 1 19.2581 1.51844 7.34652 3.83138 -1.39216 0.385298
1885 3 21.1794 3.42728 7.34919 1.28867 2.01351 7.2042
992 2 26.7166 3.20273 5.21506 -7.97629 -1.48024 -4.67454
931 1 25.1384 1.5211 5.17466 5.137 1.32987 -4.18659
988 2 23.3245 3.01823 5.24424 -1.42212 0.525326 0.065568
1826 1 22.9626 1.37307 7.0211 -1.79433 7.85394 -5.63817
1889 3 25.0635 3.25112 7.04643 -2.06167 -0.238805 2.3406
928 2 23.1566 -0.116952 5.21905 3.78091 -3.29824 -0.695152
1831 2 25.0106 1.4796 8.59912 -0.366243 -0.0499537 0.828169
967 1 3.54259 4.90445 5.1693 -6.88928 -4.4595 0.652023
1024 2 1.59456 6.91653 5.33417 4.74577 0.906294 2.05118
1862 2 1.73274 4.99797 6.92567 -4.29673 -4.67748 -3.32768
1925 1 3.33939 6.6644 7.03689 -1.49076 0.344106 1.97162
1924 3 1.37127 6.84475 8.65267 -4.66346 -5.60277 3.57913
1863 3 -0.0610753 5.00578 8.6561 -2.15031 4.83519 0.326258
1922 1 1.58102 8.52902 6.82044 1.17307 -4.21825 4.94927
1927 3 2.95479 8.72481 8.6318 -6.19537 -2.70165 -1.03324
971 1 7.03753 5.13326 5.23675 1.83675 -3.27974 9.092
1028 1 5.22109 6.8582 5.52088 -2.48597 -1.12233 2.32268
1866 2 5.28892 5.04644 7.00765 3.44927 3.31214 -1.28781
1929 2 7.02144 7.04064 7.05295 -1.74587 5.09356 -2.50121
1871 1 6.88427 5.47031 8.67021 -0.225798 -4.73564 4.94593
1031 2 6.60648 8.72427 5.22429 0.958168 -0.0541996 2.37219
1870 1 8.94532 5.3696 6.76866 -2.98874 -1.67957 2.98287
1032 2 8.82092 7.05221 4.89679 -0.590002 -1.35251 3.06008
975 3 10.6554 5.32314 4.92992 -0.476373 1.52231 2.25653
1036 2 12.4341 7.12026 4.92353 0.313854 7.62181 4.26325
1874 2 12.2966 5.3277 6.90262 3.25963 -3.4339 -4.52534
1933 3 10.6692 7.19895 6.63956 -2.26454 3.2825 -0.678136
1932 2 8.78508 7.22677 8.72873 -1.95507 4.29294 0.415945
1936 1 12.4035 6.81836 8.75879 4.90525 -0.51439 7.20054
1035 2 10.462 8.67463 4.67847 -6.48496 0.192812 -5.88309
979 1 14.2418 5.36819 4.95916 4.98442 1.49661 0.70192
1040 2 16.0671 6.98208 4.91312 -0.34451 0.0836664 3.10748
1878 1 16.0499 5.39909 6.864 0.741718 2.12497 -3.7794
1937 3 13.956 6.97631 6.92085 5.1021 1.30379 7.36028
1938 3 16.2213 8.55535 6.85185 0.578066 0.532404 -4.61511
1039 2 14.321 8.63262 4.92855 1.68849 -2.41064 -1.31168
1883 3 17.6854 5.19496 8.67665 -9.84368 0.3211 3.07855
1941 2 17.9891 6.75662 6.97262 3.04601 -1.67247 -2.25258
983 1 18.0325 5.04809 4.97385 1.39601 1.49619 1.07725
1043 3 18.1441 8.58078 5.07584 1.22463 -0.970263 -0.380409
987 3 21.3341 5.07391 5.10121 2.73869 0.14596 -6.33311
1044 3 19.4516 6.73301 5.10349 2.7222 0.81323 2.94966
1882 3 19.6188 5.01138 6.84876 -3.36409 -1.62283 3.76439
1945 3 21.399 6.68868 7.03619 4.38612 1.29136 5.322
1942 3 19.7836 8.44344 6.74814 1.50298 5.09418 -5.69113
991 1 24.8402 4.95281 5.17474 -0.106415 -0.556808 1.824
1048 3 22.8687 6.96248 4.91915 3.82553 1.83403 -2.25628
1886 1 23.256 4.86282 7.07225 1.67527 -2.11662 7.49877
1949 2 24.4928 6.82296 6.80881 2.02254 -8.9179 8.90557
1890 1 26.5366 5.05175 7.05886 5.02034 2.91554 4.87384
1950 1 26.6873 8.53747 7.10358 1.27133 -1.08232 4.18191
1946 3 23.0561 8.69092 6.61957 2.37681 7.07844 0.919023
1052 1 26.7036 6.88292 5.4084 7.49224 4.96584 -0.975171
1952 2 26.7371 6.4654 8.67876 1.35007 1.15159 -2.1742
1051 3 24.7795 8.53477 5.2151 4.01557 -3.88333 -3.55851
1948 3 23.0769 6.55904 8.74588 1.4441 -3.77663 0.421895
1027 2 3.35463 8.93689 5.02766 1.64893 3.18649 2.93832
1084 3 1.30964 10.6515 5.12369 -1.15241 -2.10461 -2.46782
1087 1 3.23526 12.4056 5.12598 -3.6574 -3.60095 6.74184
1982 3 1.41716 12.4506 7.12941 -2.04639 -0.261094 2.59364
1985 3 3.04984 10.5645 7.11669 -0.639187 -0.778815 -3.999
1931 1 7.03594 8.75963 8.51378 0.55112 -1.46982 0.958948
1926 1 4.90579 8.85704 6.90388 0.43409 2.84855 3.49193
1088 1 5.40519 10.5827 5.19603 10.033 -4.50766 2.30506
1091 1 7.10682 12.4993 5.14602 -2.63296 4.56501 -0.308471
1986 2 5.16063 12.3126 6.99742 1.81252 2.21104 2.8384
1989 2 6.95185 10.7236 6.92541 -4.51971 -1.04734 -3.02152
1991 1 7.21522 12.3716 8.65491 6.45823 -2.07773 5.40387
1092 2 8.75573 10.4607 5.12528 1.54125 -6.45418 0.676167
1935 2 10.9978 8.81689 8.5377 0.921181 6.78058 -1.70716
1930 1 8.88995 8.91085 6.78818 4.62636 -0.476848 -4.38355
1992 1 9.24975 10.5817 8.45213 6.62397 -0.443811 -0.345172
1990 1 9.05497 12.2169 6.78057 2.74615 6.66583 -8.66569
1934 1 12.6263 8.83651 6.73458 -2.53832 -0.524478 -3.80904
1095 1 10.4509 12.4718 4.91879 -2.18941 -2.09168 -0.389309
1096 3 12.363 10.723 4.94984 -0.437244 -2.61764 -2.4455
1993 2 10.5956 10.5802 6.81863 0.460941 3.42336 1.12544
1994 3 12.3781 12.5546 6.65008 1.61626 -4.17777 -0.55922
1995 3 10.6486 12.3209 8.51125 4.52285 -6.24105 -1.71018
1996 1 12.5888 10.8071 8.5724 -0.976428 3.46007 -6.4351
1099 3 14.3453 12.3788 4.94692 -6.1322 -7.54441 -1.86296
1100 1 16.0734 10.2623 5.32652 -3.31713 -4.80845 -0.962952
1997 2 14.0293 10.5704 6.51627 6.31841 8.09341 -6.4027
1998 1 15.8744 12.217 6.82979 2.70459 -0.85061 4.01912
1999 1 14.3274 12.5142 8.67976 4.11328 -3.09722 9.13476
1939 2 14.0803 8.96149 8.67674 0.319746 0.706401 -1.28677
2003 3 17.6993 12.2531 8.69052 -2.12328 1.54293 -1.20186
1103 1 17.9099 12.177 5.23139 -0.97123 -2.21944 -6.42594
1047 1 21.0566 8.86629 4.81005 2.63448 3.32295 -1.00432
2001 3 17.8812 10.422 6.97629 -1.30016 11.7936 2.04828
1104 2 19.4945 10.4252 4.91677 0.250485 -3.34769 -0.349662
1107 2 21.2825 12.5438 5.00318 -3.34439 -5.99252 -1.44746
2002 1 19.6925 12.3137 6.60403 1.7869 -0.922627 2.19577
2005 3 21.4039 10.6527 6.75559 -5.03791 9.90557 0.00630597
2007 3 21.4288 12.4058 8.49081 2.59534 0.616995 -1.80666
1112 2 26.6328 10.6504 5.50332 1.64729 -0.490716 4.83488
1108 1 23.1009 10.686 5.04111 3.52829 -3.67114 -2.91311
1111 3 25.054 12.3957 5.06082 6.04259 8.62576 -6.54619
2006 3 23.3433 12.4465 6.68178 -0.221633 -0.793451 -0.261473
2009 3 24.8548 10.4549 6.86547 -3.08221 -4.73776 0.97431
2008 2 23.0219 10.1301 8.6462 2.25989 1.64091 3.31245
2011 3 24.6578 12.2168 8.56174 5.38854 3.2147 -3.50706
1144 2 1.49267 13.7795 5.12127 0.2891 -1.22962 -2.11632
1147 2 3.07423 15.5639 5.15103 -6.23301 2.71382 -4.7115
2042 1 1.28902 15.8271 6.75046 2.58258 0.715635 1.7333
2045 1 3.24576 14.1403 7.00978 -4.93504 3.55565 1.76214
2104 2 1.32934 17.4508 8.63168 -4.42266 2.96022 4.98857
1204 2 1.41478 17.5486 5.03152 -1.55622 3.60778 2.3483
2044 2 1.26686 14.2765 8.62992 0.228343 1.47047 4.66055
2047 2 3.1455 15.9123 8.61985 -5.75923 -4.26918 -4.21321
1148 3 5.23773 13.8591 5.0585 3.29412 5.83853 -3.43972
1151 2 7.04863 16.0857 4.64804 -6.69364 3.11339 -1.53882
2046 1 4.82122 15.6095 6.88932 2.91533 -4.43008 -2.88824
2049 2 6.78784 14.243 6.9863 -0.832652 -3.55465 -0.354575
2109 3 6.69661 17.4704 6.81483 -0.789087 -0.74325 1.00814
1208 1 5.16407 17.6014 5.11147 6.16265 8.22537 -5.89206
2108 2 5.0348 17.3183 8.65504 9.4218 -2.07232 1.00924
2050 3 8.60928 15.8264 6.52815 -7.20408 4.7003 3.37205
2112 3 8.70518 17.7472 8.46265 -3.24516 6.31565 1.22949
1152 2 8.78234 14.4107 4.87198 3.79698 -9.03871 -9.71467
2052 3 8.76455 14.1351 8.52886 -5.99698 -3.13667 -4.92923
1155 3 10.8079 16.1236 4.99643 0.686473 7.3293 1.44241
1156 1 12.1877 14.2773 5.01995 -1.56285 -1.65705 7.81716
2053 2 10.5804 14.2311 6.8972 2.08569 0.556014 -6.4202
2054 1 12.3051 15.9099 6.7654 -5.79135 -2.69542 -4.27184
1216 3 12.4273 17.6652 5.0448 2.74416 3.36116 -3.27776
2113 2 10.448 17.4601 7.0168 5.17377 3.658 3.14615
2055 1 10.6287 15.9531 8.66613 -3.87215 0.996111 1.5032
2056 3 12.3839 14.0402 8.62496 2.42169 7.44269 -0.589518
2116 1 12.4765 17.7049 8.71095 1.82451 2.1413 -3.92835
1159 1 14.2654 16.0224 4.99976 -0.877088 3.36748 6.47006
1160 1 16.1057 14.2426 4.85877 4.04233 -5.79967 2.05889
2057 2 14.3206 14.0903 6.9484 -4.94707 2.92295 6.09858
2058 1 15.9428 15.8837 6.86939 -3.78837 -8.95646 -3.72657
2117 2 14.0353 17.5198 6.94526 -2.75587 -3.67546 1.23589
1220 2 15.9986 17.7315 5.1888 10.3818 0.0189193 3.50976
2061 2 17.593 14.0384 6.9122 3.39267 0.23618 -0.487118
2063 2 17.6413 15.9393 8.66378 -0.390313 -12.8583 0.0598156
1163 1 17.6723 15.9069 5.07786 -4.9793 0.966305 -1.84307
2060 1 15.9389 14.2074 8.67865 1.47902 -3.37625 -5.283
2121 2 17.7954 17.6302 6.9271 2.97428 -4.63822 -0.307829
1164 3 19.3306 14.1214 5.20682 -4.16955 -0.28875 3.5454
1167 2 21.5525 15.8607 4.96296 -6.278 6.61332 -2.39138
2062 1 19.4899 15.7982 7.10384 -1.53553 -3.31218 -1.52538
2065 1 21.2096 14.2858 6.64504 -2.51579 -0.561493 1.98533
2125 2 21.1472 17.6614 6.81054 -0.165518 -0.352479 0.171667
1224 2 19.4402 17.534 5.30246 8.06926 1.44456 1.44708
2064 2 19.7093 14.0766 8.61811 -4.29923 -4.09651 -4.42664
2124 1 19.5839 17.6995 8.56915 -7.48902 -3.43021 -2.06762
1172 3 26.6804 14.3879 4.8381 -6.19505 5.9435 -3.56317
1168 1 23.4044 14.3211 4.91546 0.306578 1.78114 -5.43969
1171 1 25.0019 16.2073 5.11462 2.34502 1.06025 -2.86422
2066 3 22.9897 16.0152 6.90985 -4.89949 -6.32283 0.0361533
2069 2 25.1561 14.3136 6.69563 1.61806 4.65716 -1.03599
2070 3 26.7312 16.2115 7.425 -0.586442 6.82549 0.762594
2068 2 23.2384 14.1057 8.58975 0.28178 -10.3265 -6.37986
2071 1 24.7031 16.0226 8.72264 1.99272 5.92932 -1.04054
2105 2 3.36591 17.7609 6.59661 5.57516 -1.70953 4.61038
1207 3 3.16961 19.7716 4.95635 6.88903 -11.3657 4.34273
1264 3 1.43944 21.3452 5.11243 -4.22238 4.32709 -3.02015
2102 1 1.37156 19.4955 6.44951 -1.89901 -3.01183 -4.33293
2165 2 3.39882 21.3236 6.92733 -2.79295 -0.0797156 -3.49556
2107 3 3.3485 19.4267 8.62228 -3.55005 3.15379 -2.10498
2103 2 -0.133798 19.8874 8.73555 -2.79379 -4.06252 4.40135
2164 1 1.83636 21.2318 8.56679 -0.16047 2.83094 -3.82607
1211 2 6.95635 19.7798 5.26115 -4.98805 0.749174 3.20787
1268 1 5.01713 21.413 5.10452 -7.47098 0.530781 -3.87329
2106 2 5.11241 19.6374 6.71169 2.96715 1.45979 4.34441
2169 1 6.98274 21.4404 6.87148 2.87594 -10.1518 -7.75087
2168 1 4.82321 21.3597 8.65097 -3.67663 -1.00074 4.19894
2111 3 6.99348 19.3541 8.56618 -6.96083 -5.0834 -6.30864
1212 3 8.56488 17.9059 5.18748 -4.88039 -0.849714 -5.30334
2110 1 8.94042 19.6605 6.90936 -0.734648 -3.31022 -1.566
2172 2 9.11164 21.5824 8.47674 6.63811 6.2992 2.39503
1272 1 8.75898 21.2762 5.11565 -2.28558 4.31406 2.27204
1215 2 10.4909 19.5341 5.05785 1.08649 -3.09533 -2.50146
1276 3 12.7646 21.1879 5.23878 -2.98871 4.51974 -5.08664
2114 3 12.2757 19.2241 6.60255 -2.24624 5.15408 -1.18489
2173 3 10.9773 21.1139 6.68989 -0.929291 -0.476718 -3.07962
2115 3 10.5127 19.4873 8.51592 -0.914158 3.7899 7.08935
2120 1 15.7621 17.9607 8.55183 -0.408699 1.38516 3.53449
1219 1 14.2887 19.4315 5.14139 1.95636 -1.06475 -2.87704
1280 1 16.2583 21.4919 5.14022 4.70519 7.36259 -7.34899
2118 2 15.9153 19.4956 6.9879 -0.517293 2.29119 -2.14562
2177 3 14.1688 21.4447 7.01656 -10.2557 2.44831 4.08307
2119 3 13.7594 19.6222 8.38208 -1.65637 -5.87287 0.592138
2181 1 17.6133 21.3881 7.11882 -3.60665 1.80504 -3.33123
1223 1 17.9035 19.5931 5.31162 -4.33131 -1.58337 1.3606
1227 3 21.3803 19.5484 5.40034 7.25824 -0.201244 -5.23349
1284 2 19.4085 21.5804 5.44263 0.774095 -4.04864 -0.476382
2122 1 19.6181 19.7071 6.87004 -1.38705 1.03877 6.32251
2185 3 21.2771 21.4409 7.00788 5.91145 1.80726 0.0764071
2127 3 21.4612 19.5484 8.68966 -0.0778309 6.0897 3.08277
2184 2 19.7497 21.1318 8.47503 1.26747 3.29136 -1.20633
1228 1 23.0762 17.9787 5.27668 0.875097 -0.689045 2.61974
2129 2 25.0134 17.8703 6.98762 -0.117395 1.90635 -3.92113
1231 3 25.022 19.514 5.23686 2.84037 5.94143 0.38952
1288 2 23.2615 21.5363 5.18689 -0.434077 -2.78729 1.25164
2126 3 23.2104 19.8423 6.93324 -0.0310585 1.00072 -0.858334
2189 1 25.185 21.2872 6.80255 1.50885 -4.35004 -0.752314
2131 3 25.0082 19.6762 8.62504 4.55868 3.93397 -3.27962
2221 3 -0.23831 24.8372 6.55871 -2.89394 2.28083 1.22513
1267 3 3.30145 23.1078 5.08531 -0.98755 0.763833 3.972