ITEM: TIMESTEP
48000
ITEM: NUMBER OF ATOMS
13500
ITEM: BOX BOUNDS pp pp pp
-2.1189167430861744e-01 5.3731891674302801e+01
-2.1189167430861744e-01 5.3731891674302801e+01
-2.1189167430861744e-01 5.3731891674302801e+01
ITEM: ATOMS id type x y z vx vy vz
7 3 3.18436 1.52037 1.44923 -2.56341 3.83506 5.56759
64 2 1.50659 3.16307 1.68806 -0.112872 -7.1986 2.6174
902 2 1.65546 1.53672 3.35542 -0.624181 1.33239 -2.5279
965 1 3.52523 3.19731 3.20993 1.95944 -0.525973 -2.14315
961 2 -0.126797 3.13605 3.53417 2.30792 -2.39401 4.64435
3 1 -0.197502 1.52784 1.5718 -0.0349866 -0.270251 -8.09836
11 1 6.63795 1.52358 1.64027 3.85745 -3.91246 4.91904
68 1 4.88367 3.18559 1.49842 0.395104 3.72817 -1.59866
906 2 5.2546 1.26542 3.27292 -0.835744 -4.53367 1.03715
969 2 6.83602 3.31877 3.29451 1.63638 2.75276 1.75942
910 1 8.77275 1.53699 3.22332 2.88077 2.12584 3.23493
9 3 6.90802 -0.143857 -0.161202 0.524405 -1.691 -3.9714
10 2 8.59295 1.52329 -0.197197 2.32239 -4.30937 -4.80809
69 3 6.98025 3.20217 -0.0221823 -2.38738 2.75623 -3.88497
72 3 8.82204 3.27159 1.50726 0.623668 7.38339 1.61064
15 2 10.5538 1.58782 1.77333 3.73247 2.10959 1.31334
76 3 12.3038 3.30651 1.50655 -5.61171 3.31195 2.86963
914 1 12.3839 1.46372 3.41877 5.55452 4.70163 6.51563
973 3 10.6479 3.33156 3.568 -2.22553 -2.98385 3.86822
16 1 12.3511 -0.0577979 1.702 1.68548 -0.355366 4.78764
13 1 10.4839 -0.159845 -0.195656 1.54974 3.56561 -3.19458
19 3 14.0839 1.599 1.47392 -3.14745 -5.96889 -5.37593
80 3 15.8425 3.39234 1.63881 -5.77879 2.14898 0.661448
918 3 15.9763 1.09473 3.43881 3.79555 -4.67906 4.16987
977 3 14.1593 3.08077 3.35753 -0.681437 -3.83594 -4.62933
23 1 17.7153 1.75102 1.75151 -0.141191 -0.304122 -3.60623
981 2 17.5784 3.20626 3.45187 3.84283 4.54602 3.63868
18 3 16.004 1.72147 -0.0532148 0.855967 -3.71074 -3.03738
20 3 15.8674 -0.0800489 1.40851 0.270957 3.42911 -0.575104
21 3 17.5522 0.00510087 -0.199585 -4.60972 2.06713 4.99491
27 1 21.1576 1.80544 1.49677 -3.50959 0.0555866 1.33096
84 2 19.5598 3.56364 1.37769 1.14717 4.38798 2.04548
922 3 19.4824 1.63977 3.41947 3.93338 -1.66604 -1.02729
985 1 21.2989 3.40293 3.47092 -1.15683 3.4283 -10.107
22 2 19.4413 1.78973 -0.0707713 -1.71351 -5.07723 2.84089
31 1 24.8782 1.55584 1.50424 -3.41784 -2.47452 5.11231
88 2 23.2817 3.40809 1.39131 -2.8983 1.3396 1.81369
926 2 22.8393 1.84265 3.22176 5.4702 0.0957666 -0.917748
989 3 24.8735 3.31924 3.37079 0.834947 -2.25791 -0.260718
26 2 22.8805 1.52171 0.00736171 3.78847 1.29482 -0.567021
929 3 25.0182 -0.126446 3.46898 -6.13134 0.685449 -3.11579
930 2 26.6532 1.49526 3.47652 0.652804 0.655966 5.30696
67 2 3.11705 5.02236 1.37721 -0.555496 1.51069 2.58274
124 3 1.49468 6.98123 1.39927 -1.88379 3.08874 -5.51604
962 1 1.52766 4.81711 3.61996 -5.77982 1.98235 3.68478
1025 2 3.42493 6.71153 3.25223 0.661177 4.88876 -0.589902
62 3 1.45544 5.38014 -0.205306 -1.55328 0.581155 -1.35756
1021 2 0.110917 6.78591 3.68508 3.11859 -5.11635 4.2623
125 1 3.39545 6.98021 0.125077 -6.24204 5.4867 2.71302
122 2 1.71914 8.73227 -0.107614 1.45173 2.13102 3.66593
71 2 6.86211 4.89972 1.62325 -1.11785 -3.71551 1.45316
128 1 5.34926 6.54477 1.6755 -4.76311 -2.75824 -5.93755
966 1 5.36933 5.11205 3.47814 -0.827223 -7.37408 1.16966
1029 2 6.9352 6.97135 3.31262 -1.24687 -0.710965 0.32356
129 2 7.01931 6.94819 -0.0516503 2.82382 -2.75461 -8.0223
132 3 8.73966 6.78614 1.75139 4.21053 2.24778 -4.03395
970 1 8.6494 5.06574 3.58928 -0.105931 -0.89301 -3.57052
70 3 8.60858 5.15272 -0.119128 -2.88655 -5.13472 2.29555
1026 2 5.41317 8.76244 3.27339 4.88837 -4.94217 0.737579
75 2 10.7647 5.05876 1.45142 -4.00425 4.3816 -2.6358
136 1 12.3484 7.0508 1.51256 3.93363 -0.687431 -0.674861
974 3 12.3212 4.88727 3.74852 -1.17731 -5.0372 2.58359
1033 1 10.4335 7.0191 3.44716 -2.71534 -2.93502 1.08856
133 1 10.6255 6.85906 -0.181228 -3.19792 3.52742 -0.904558
1034 2 12.2398 8.74209 3.1529 1.32944 3.0572 -0.166267
79 3 13.99 5.09442 1.55117 -6.61673 0.0530198 1.86044
140 3 15.9962 6.90466 1.65111 -1.1258 -0.108942 3.54446
978 3 15.9516 5.23729 3.55783 0.972071 3.31323 -3.05593
1037 3 14.2753 6.71118 3.41053 -0.723791 3.66442 -3.26617
139 3 14.3051 8.59429 1.54919 1.19522 1.33114 -0.430423
78 3 15.8039 5.46921 -0.0886214 -1.7692 7.24611 -4.36911
1038 2 15.9175 8.58178 3.53467 3.98686 0.79481 -1.83827
83 1 17.7504 5.21618 1.59776 1.08774 3.08178 0.866959
138 2 15.8936 8.74366 -0.118915 -3.47842 -3.74564 0.695491
1041 2 17.8405 6.84725 3.60858 -2.53181 -9.72444 2.14014
143 1 17.7702 8.76359 1.58716 -5.07895 0.0683641 2.92572
87 2 21.3829 5.21127 1.61318 -1.20336 -1.194 1.77875
144 1 19.4985 6.96863 1.51698 -5.76639 -1.26148 -4.65065
982 1 19.5558 5.06582 3.48323 -1.83292 0.691592 -0.75443
1045 2 21.1521 7.0376 3.3383 1.7976 5.92014 -3.17449
82 2 19.5666 5.2052 -0.1275 2.66388 0.546661 -3.42922
145 1 21.434 6.95465 -0.0514157 1.18759 1.76394 2.09069
91 3 25.0972 5.30317 1.57834 -1.87353 -3.91604 -0.876561
148 1 23.1852 7.18445 1.52585 0.505694 -1.63781 -5.36052
986 1 23.1767 5.29513 3.23602 -8.86089 -1.6319 -2.16515
1049 2 25.1747 7.14207 3.38469 -0.77159 -1.68149 -1.56415
86 3 23.4235 5.22795 -0.054542 5.28884 -0.147219 -2.0096
1046 1 23.5071 8.7016 3.1925 -0.0736334 -0.590549 -4.3795
990 3 26.6835 5.35822 3.62474 -3.48293 -1.05848 6.49211
127 1 3.76329 8.8489 1.60888 4.01159 2.31049 -2.59495
123 3 -0.0618821 8.88243 1.83281 1.5106 3.10385 -0.604895
1022 2 1.78365 8.92162 3.28282 0.0638459 -0.705063 1.46539
184 3 1.89044 10.8591 1.5348 3.55905 0.631008 -6.96127
187 2 3.65877 12.5338 1.56854 -2.36593 -0.818283 -0.825673
1082 1 1.99217 12.6036 3.29597 -1.2843 2.79062 5.6299
1085 1 3.6734 10.7212 3.25395 2.63646 3.6025 -5.43784
1081 3 -0.105517 10.6934 3.23982 1.9462 -3.41371 3.6676
182 3 1.85098 12.4158 -0.129177 -1.53122 -8.68996 1.22222
183 2 -0.119084 12.5343 1.54583 1.27117 -2.97171 -5.01428
181 3 -0.119078 10.6193 -0.113817 4.16671 -3.96719 2.37133
131 1 6.95066 8.88417 1.59834 -3.83909 -3.16827 -3.30303
188 2 5.28076 10.6239 1.55302 -3.80779 7.32176 4.02284
191 2 6.8436 12.3063 1.54464 -7.05994 -5.21005 -1.61118
1086 1 5.27376 12.6725 3.38771 -1.9173 2.67806 -2.98134
1089 3 7.01031 10.5908 3.50984 -2.49163 -0.166996 -2.98134
192 2 8.60725 10.7063 1.61154 -4.77623 -4.48201 -9.25238
135 2 10.497 8.79091 1.71512 4.84199 0.883595 -1.20805
1090 3 8.8168 12.4337 3.40213 2.97126 1.8269 -1.78323
130 2 8.92152 8.84254 0.0341767 4.25057 -1.073 0.774367
1030 1 8.90437 9.01157 3.40667 -4.66542 -6.40004 6.41098
195 3 10.6043 12.35 1.51529 -2.0305 -3.80372 1.27846
196 3 12.4947 10.4447 1.41803 0.722997 -7.26794 3.90207
1093 3 10.8071 10.5502 3.41853 -0.313513 -1.27764 -7.83289
1094 1 12.5716 12.3478 3.6425 -0.487671 1.48253 3.29785
193 1 10.7792 10.3942 -0.107801 -4.92261 -2.99925 0.673272
194 3 12.5014 12.4688 -0.119511 -1.34418 -8.38097 -1.43197
199 1 13.9103 12.5207 1.50057 4.47225 7.43175 6.54813
200 3 15.8785 10.5295 1.68733 4.93631 -1.70556 -7.29462
1097 1 14.0014 10.3642 3.26302 1.25953 3.08366 -1.36394
1098 2 15.6286 12.0183 3.36827 -1.62803 0.0526933 3.74332
198 3 15.8974 12.2554 -0.0303846 0.959795 -1.39409 -1.74778
203 3 17.7107 12.4136 1.74964 1.61592 0.159909 4.11643
197 1 14.1054 10.6223 -0.21057 -5.26832 1.00466 -3.52938
201 3 17.6504 10.566 -0.175284 4.89789 4.10788 -4.08632
1042 1 19.6201 8.79168 3.21681 0.40321 4.31117 5.53837
147 2 21.564 8.81368 1.61658 1.12765 -3.13565 -0.906224
1101 1 17.7992 10.519 3.43825 -0.291785 -2.19604 8.1614
204 2 19.5062 10.6063 1.70458 -7.34097 0.967917 -1.35603
207 3 21.112 12.6446 1.62088 -3.49495 1.57299 1.03284
1102 1 19.4414 12.4482 3.38368 4.36848 -0.757788 1.50092
1105 3 21.5878 10.494 3.28718 2.61533 1.75613 3.89786
205 1 21.1174 10.1968 -0.00181023 1.52648 -6.26009 -1.18383
202 3 19.2797 12.2733 -0.0593906 3.51459 2.61272 1.5531
151 2 25.3485 8.8909 1.7543 0.778071 -2.20024 3.71823
208 1 23.2511 10.5424 1.44566 2.64644 2.5975 -5.23145
211 1 25.1713 12.4646 1.65634 -1.47106 1.85758 2.34647
1106 2 23.5385 12.2935 3.21798 2.37716 1.63018 3.55364
1109 2 25.0763 10.513 3.37141 -1.49609 4.46794 0.147475
206 2 23.0734 12.3435 0.309766 1.98035 -3.00659 -7.40764
1110 2 26.7363 12.1406 3.39289 1.9975 4.18462 6.60544
244 1 1.37463 14.2439 1.69792 1.9382 -6.0565 2.91607
247 1 3.38978 16.1808 1.68869 8.28019 2.57182 2.44032
1142 2 1.54389 16.0746 3.58853 5.96988 -7.36985 -0.206271
1145 2 3.46054 14.3884 3.45868 1.57444 5.3274 -5.58567
304 3 1.43558 17.5821 1.49455 1.29985 -0.409358 4.63856
242 3 1.4653 16.0114 -0.174234 6.12871 -6.09428 -1.29261
248 3 5.27579 14.2583 1.3795 -5.46376 5.24779 -1.41111
251 3 7.03314 15.882 1.44854 -1.4154 -6.82491 1.48492
1146 3 5.14162 16.1075 3.32186 -8.87387 9.59192 -7.08215
1149 2 6.9224 14.2748 3.44068 -2.14752 -1.35458 -2.11726
309 3 7.26485 17.7438 -0.118737 7.45496 3.23775 -3.25939
1209 3 7.00546 17.7339 3.42383 4.52272 -1.30773 1.8868
252 1 8.88948 13.8519 1.34906 -4.85349 -4.9616 -1.95606
1150 3 8.93128 15.829 3.54872 -0.68018 1.09665 -1.5769
255 2 10.4348 15.6253 1.85663 0.420999 3.53607 1.53803
256 2 12.4104 14.2138 1.76292 3.44293 -5.47366 5.96318
1153 3 10.7136 13.9908 3.71328 5.52857 4.35581 6.37959
1154 2 12.3059 16.0135 3.50047 1.70891 -3.92758 0.28556
254 1 12.1648 16.2992 -0.0680859 0.193421 -6.99646 5.23064
316 2 12.4146 17.6265 1.77624 -1.54127 1.7097 2.18929
1213 1 10.5792 17.5786 3.57178 1.59139 0.2821 -0.153133
312 1 8.82383 17.5621 1.92357 -0.189156 4.60951 4.11367
259 1 14.0503 15.7395 1.72088 -2.56842 6.96339 2.25875
260 1 15.9048 13.9734 1.53417 -5.88333 3.00554 -5.43217
1157 1 14.2867 14.1433 3.41761 2.61811 -7.87094 0.44959
1158 2 15.7501 15.8874 3.40447 -4.32492 0.811178 -1.92752
257 3 14.2777 14.1631 -0.174255 -0.718823 2.1254 -7.03977
258 3 15.9016 15.905 0.033997 -3.185 -1.96712 -5.44527
1161 3 17.4927 14.2201 3.32805 1.12052 1.12339 -4.29641
261 3 17.5476 14.3145 -0.144308 -2.13616 -0.89719 0.10281
1221 1 17.6927 17.7018 3.48659 -0.629348 0.453538 1.35023
317 2 14.1745 17.7252 -0.00276823 -1.13187 2.08974 8.86294
263 3 17.794 16.0427 1.64279 4.1457 -0.137664 -1.24083
264 3 19.338 14.2828 1.48997 4.20953 -0.0386931 5.6437
267 3 21.3081 15.9428 1.73972 3.40978 5.35511 -1.13795
1162 3 19.4796 16.0455 3.51633 1.50009 1.32321 1.49596
1165 3 21.2652 14.0454 3.43883 5.88843 3.07559 2.45275
265 3 21.4399 14.1775 -0.0659911 -0.251988 -5.0939 -1.04886
324 3 19.4265 17.6097 1.66822 3.47496 5.3519 -1.03511
262 3 19.3793 16.0436 -0.0875586 0.61677 -2.12457 3.89124
325 3 21.2368 17.7138 -0.141113 0.540954 -0.620752 4.94836
268 2 23.1903 14.3767 2.01632 -2.01204 0.511835 3.46669
271 3 24.9459 16.3745 1.62692 -3.50281 1.6713 -6.03065
1166 3 22.9965 16.3306 3.52082 -0.234341 0.702167 -5.77041
1169 1 25.3082 14.1478 3.47293 -4.06074 0.147851 9.387
269 3 24.9151 14.3544 0.101175 -5.46108 -4.78659 -3.9348
266 3 23.0788 16.103 -0.123736 -2.69187 -3.15823 -2.91521
1170 1 26.7071 16.08 3.38463 -0.444877 -4.19678 -4.42484
1229 3 24.937 17.7207 3.42912 -0.959628 -1.34419 3.69563
1205 1 3.5522 17.7893 3.29321 -5.56336 -2.58773 -0.310125
307 2 3.37228 19.3017 1.59751 -0.859722 4.39939 -2.09226
364 3 1.65828 21.2089 1.80245 -2.5103 -0.0445486 1.33975
1202 2 1.70235 19.3789 3.44474 -1.36343 1.48885 0.312557
1265 3 3.37889 21.1276 3.40378 -1.88867 2.0411 -3.73927
303 2 -0.0332925 19.7128 1.34519 -1.00146 -2.58538 -4.71663
365 1 3.35752 21.2425 -0.0923753 -2.41173 -1.91041 -1.96769
308 2 5.34339 18.1485 1.58066 -6.15907 -1.801 1.48753
311 2 7.16011 19.6706 1.74445 1.31705 3.46936 1.32854
368 2 5.22913 21.1165 1.59162 5.90184 2.90715 1.19681
1206 3 5.24453 19.4759 3.49479 7.66159 3.6694 -5.06186
1269 1 7.00153 21.2346 3.50985 -3.23932 1.11718 -0.267586
372 3 8.76465 21.3807 1.55977 4.92885 3.7406 0.604318
306 1 5.26236 19.5624 -0.207881 0.821976 -1.15346 0.248871
310 2 8.78961 19.4314 -0.0260787 1.0062 -0.619959 -1.69816
313 1 10.7877 17.9933 0.0798295 -1.84222 -7.15344 1.77708
1210 2 8.85697 19.4953 3.55886 -3.74779 -8.48271 5.70192
315 3 10.5572 19.7597 1.74804 -3.73786 -0.863564 4.81469
376 2 12.6268 21.7448 1.61524 1.4147 0.896809 3.10581
1214 3 12.1307 19.5153 3.3899 5.25965 0.239637 -1.80529
1273 2 10.3057 21.4642 3.41038 -3.30708 -1.02703 -8.28033
314 2 12.3867 19.7043 -0.179455 -1.87844 -1.46056 6.37265
1217 1 14.1832 17.9779 3.67898 -2.40968 4.8731 0.34468
320 3 15.8846 17.804 1.81803 -3.28873 -2.06962 -0.114097
319 1 14.0148 19.5489 1.51803 -3.16742 -2.36252 -3.59066
380 2 16.0292 21.2819 1.55362 -1.10322 0.101175 -1.42919
1218 2 15.8987 19.7002 3.18664 2.98744 0.683795 -12.8244
1277 1 14.1453 21.6009 3.33816 4.24428 4.12673 6.84844
323 1 17.5991 19.368 1.69203 -2.47264 2.01117 2.20694
318 2 15.5772 19.8012 -0.0777437 -1.08803 -2.53927 0.474732
321 3 17.4157 17.9465 -0.188462 0.62621 -5.08847 -4.19852
1281 3 17.5546 21.402 3.23566 -3.07707 -4.68829 -1.62655
381 1 17.7883 21.4621 -0.192037 -1.39331 3.09572 -3.95042
1225 3 21.2854 17.864 3.10567 7.76517 1.33219 0.769318
327 1 21.3446 19.6558 1.55041 1.5883 -6.37021 4.70215
384 2 19.594 21.7012 1.66121 -5.00544 -2.859 -2.55944
1222 1 19.4595 19.8083 3.11463 -0.432404 4.87919 2.92435
1285 2 21.2829 21.3034 3.31989 -6.76702 -5.27736 -4.06582
322 2 19.4039 19.4451 0.173464 2.40572 -7.05767 -3.00748
385 3 21.3111 21.517 -0.21552 -3.02011 -3.23459 -2.29438
328 3 23.2946 17.9795 1.78699 -8.93041 1.27499 0.570942
331 1 24.866 19.6733 1.57708 -6.82547 -4.62572 -3.0296
388 3 23.0322 21.4144 1.54823 1.81293 3.20975 -0.860403
1226 1 23.0855 19.754 3.50552 -4.24227 -3.96443 1.19181
1289 1 24.9214 21.4813 3.59215 3.65785 -4.92933 -5.11703
392 2 26.4222 21.531 1.68837 1.04756 -0.742403 3.26627
1230 2 26.6177 19.6023 3.25588 2.5004 -1.67797 10.1468
332 2 26.6424 17.8663 1.64417 -1.71095 -3.1216 -1.62912
326 3 23.0597 19.6013 -0.173112 -2.52019 -5.77345 1.7658
330 1 26.5207 19.718 -0.158419 -1.17308 0.427042 7.80252
367 2 3.40606 22.8401 1.55131 -3.17452 -0.680347 1.49959
424 3 1.25963 24.7855 1.27702 2.18285 -0.57992 -11.2574
1262 1 1.39944 22.9772 3.40455 -0.183032 3.51412 -10.2409
1325 2 3.22184 24.6993 3.24632 1.65319 0.927414 3.2432
427 2 3.25195 26.6462 1.63184 -2.36276 -2.37232 9.41741
1322 1 1.55455 26.4426 3.3136 -0.602641 2.88029 1.44608
431 2 7.27867 26.5681 1.29982 -0.894298 7.65597 4.65391
371 2 6.91209 22.8415 1.65345 1.38858 2.20948 -3.92766
428 1 4.98648 24.6948 1.18605 0.872703 -0.809803 1.90782
1266 1 5.03703 22.9527 3.41939 -2.15757 1.08659 0.851899
1329 3 6.89 24.7626 3.29548 -1.9877 10.1051 8.72274
1326 3 5.24741 26.6654 3.40176 -0.586616 1.75791 1.62752
1330 1 8.64202 26.6209 3.26794 -0.811537 3.62829 4.44663
426 3 5.18727 26.7155 -0.125446 -1.37921 11.1245 4.18789
370 2 8.83516 23.2931 -0.148054 4.63961 -1.06873 -6.1614
1270 3 8.92769 23.1358 3.39916 0.259694 -0.437328 -7.02474
432 3 8.84906 24.9537 1.46639 0.549611 -4.40018 -2.23895
375 3 10.6669 23.0868 1.66673 0.868652 -0.469228 -1.19028
436 3 12.395 25.0716 1.72778 1.04712 -4.08045 2.51937
1274 3 12.3569 23.4916 3.68502 3.07568 -4.92659 1.28348
1333 2 10.5391 25.131 3.61076 -5.4222 -4.78932 -2.75879
379 2 14.4035 23.3131 1.53074 2.95105 -4.12033 1.08877
440 1 15.8539 24.9602 1.56797 -3.52769 -0.819632 3.1325
1278 2 15.8526 23.3166 3.40534 -1.62822 4.3481 -0.0468537
1337 3 14.0093 25.2236 3.45154 4.90909 3.1916 0.344617
383 1 17.6707 23.2279 1.58976 6.74211 -2.25632 0.253109
1341 2 17.5386 24.9711 3.55001 3.08688 -0.828962 -1.79455
443 1 17.6555 26.6502 1.46235 5.83777 2.58275 -4.4447
437 3 13.9989 25.0318 -0.061853 -0.722181 -1.77253 -3.29108
387 1 21.638 23.2806 1.55307 -0.500033 5.37108 -4.35248
444 2 19.3388 24.7969 1.46453 2.73333 4.08459 -6.40657
1282 1 19.8509 23.1718 3.20534 1.28774 -5.79521 -6.5532
1345 1 21.4534 25.1559 3.13086 0.675162 -5.26796 -3.16577
445 1 21.4673 25.0272 -0.190225 -3.91724 2.49406 1.24966
452 2 26.7161 24.7759 1.65018 -2.09986 -1.46205 -3.60647
1346 1 23.0019 26.7186 3.41261 -0.570826 2.21612 -1.53557
391 3 24.6917 23.3114 1.48027 7.27767 -1.1129 1.21182
448 2 23.2096 25.1732 1.51701 -3.74136 6.73301 0.915981
1286 2 23.0234 23.0763 3.38232 -7.35209 4.08903 -4.54909
1349 3 24.8941 24.8609 3.22522 -0.265065 -0.0482105 -7.33799
390 1 26.715 23.1852 -0.086517 -0.644443 3.59534 -1.59687
1290 2 26.6605 23.0805 3.32829 -3.00402 -3.29142 2.40968
907 3 3.54366 1.50893 5.15902 -0.511864 -4.32524 0.283669
964 3 1.64949 3.16562 5.23752 1.41803 0.979304 -1.06203
1802 3 1.65675 1.53483 7.04203 -1.4852 -2.67888 -6.78293
1865 3 3.38354 3.2127 6.97267 3.51009 -1.61816 -1.24398
1861 3 -0.15634 3.23903 7.10751 2.75038 3.18567 0.450807
903 3 0.0332223 1.41882 5.12362 -0.772612 -5.17129 3.99951
1809 2 6.99062 -0.206102 6.93131 -7.88973 1.43561 -2.27846
911 1 6.95709 1.49899 5.08582 -4.54697 4.2458 2.31404
968 2 5.24804 3.31936 5.22109 -4.69716 -0.794449 7.1974
1806 2 5.08011 1.28339 7.07169 0.841488 3.64835 0.835325
1869 1 6.90381 3.01657 6.82064 -1.34521 2.36788 0.637521
1872 1 8.54125 3.35123 8.74713 1.867 -1.56257 5.14907
1811 1 6.87927 1.40669 8.53708 -4.35861 2.41496 4.13373
1810 2 8.87923 1.59926 7.12374 3.8586 -4.94253 5.03143
972 2 8.81931 3.26949 5.11603 -4.89458 1.14135 -1.72021
915 3 10.3218 1.36395 5.16251 -3.32116 4.99022 2.97294
976 2 12.3692 3.34266 5.37006 9.31484 5.65791 0.1725
1814 2 12.2174 1.28079 6.89644 -2.67806 14.1951 3.90966
1873 1 10.7117 3.51732 7.10063 -6.37406 -2.2586 -0.105108
1815 1 10.6962 1.4279 8.70702 -4.60803 -2.32221 4.91544
1817 3 14.0496 -0.0817245 7.06143 1.36635 -0.590813 -0.734969
919 3 14.093 1.3668 5.22321 -6.44906 -6.23635 5.7178
980 1 15.7707 3.12181 5.2539 -0.230171 -2.35298 -0.662187
1818 2 15.866 1.59874 7.00629 2.0723 -1.7972 1.72149
1877 1 13.8746 3.18059 7.17551 2.36934 -3.60887 -1.82179
923 1 17.7603 1.70475 5.15661 -1.11593 3.30175 -0.918356
1881 1 17.8243 3.33415 6.94249 3.71085 -1.32928 1.31832
1823 1 17.7779 1.75646 8.71773 -0.792594 2.66227 9.74032
1825 3 21.4744 -0.107628 6.90157 1.68397 4.23545 -6.52829
924 3 19.3975 -0.1799 5.00209 -0.236891 2.74163 -1.92612
927 3 21.419 1.51715 5.17578 -2.48535 -3.03281 1.55337
984 1 19.5168 3.39772 5.31361 6.39343 1.40922 -3.22639
1822 2 19.3644 1.62806 7.02459 3.04541 0.292723 0.215911
1885 3 21.3502 3.33265 6.97494 1.29958 2.04287 2.79716
1884 2 19.6713 3.17869 8.71011 3.80062 -7.26439 -2.61761
1821 1 17.8025 -0.102588 7.21669 -0.139529 3.92349 -2.16301
928 3 23.2081 -0.102379 5.20412 0.786798 -1.20585 3.86697
931 3 24.9972 1.91074 5.40348 1.41467 1.73618 -0.709641
988 3 23.0844 3.41481 5.26294 1.06542 7.20136 0.150406
1826 3 23.1875 1.72995 6.94638 -1.96545 2.43028 1.3464
1889 2 24.9484 3.64731 6.94946 -1.78463 -1.14612 -0.369619
1829 3 25.0015 -0.116524 7.04265 -6.55352 -1.95259 0.253494
1828 3 23.2035 -0.169871 8.73521 -5.72384 -1.34986 -1.4204
1023 1 -0.0178587 8.74072 5.04602 -0.999559 0.901504 -2.93023
1921 2 -0.140996 6.88828 6.84109 0.854371 1.82002 0.945863
967 1 3.74259 4.82881 5.24562 -1.387 8.89682 2.3713
1024 1 1.64883 6.818 5.21216 -1.99566 4.04701 -9.65153
1862 2 1.64004 5.27536 7.04987 0.231045 -4.19506 -2.5017
1925 3 3.27693 6.87946 6.83548 -3.46402 -6.69839 -5.04586
1924 3 1.50259 7.03106 8.67274 -3.60919 -0.843395 -2.88458
1867 3 3.61409 4.99984 8.66512 1.84415 0.8616 11.6877
1027 1 3.4864 8.61492 5.08219 -1.16291 -3.58066 -2.72444
1927 3 3.43256 8.68684 8.6418 -1.72038 -2.63611 -0.124821
1923 1 -0.163532 8.64091 8.689 2.49706 -5.38447 2.56061
971 1 7.04475 5.22777 5.17886 -1.40093 -1.40219 8.41432
1028 1 5.15584 6.89598 5.02406 -0.273201 -1.671 2.50815
1866 2 5.36157 5.19161 7.14348 -2.34742 -1.48899 -2.70105
1929 2 6.90174 7.1854 6.80158 6.79699 2.47212 -2.82151
1870 3 8.58893 4.8331 6.94249 0.379363 -6.60392 0.450985
1032 2 8.70308 6.87683 5.21667 1.13578 -1.86528 5.51573
1932 1 8.7714 6.78233 8.77519 0.122697 0.795216 0.397618
1031 1 7.0974 8.78349 5.16284 1.60045 4.10773 4.53172
1931 3 7.02371 8.49943 8.68904 3.42961 -4.01591 2.11154
1928 1 5.04303 6.99489 8.42943 -6.90053 4.72305 -8.9414
975 2 10.3776 5.22715 5.41202 8.27544 -6.4668 -1.57672
1036 3 12.4193 6.98238 5.01288 -5.1404 -4.91699 -1.27672
1874 1 12.4571 5.20593 7.00424 -2.798 -6.66237 0.367153
1933 1 10.5969 6.7594 6.958 -1.91793 -2.94673 4.97004
1934 1 12.361 8.46903 7.16431 3.62273 5.09006 2.12876
1035 2 10.4666 8.33422 5.31072 2.77657 1.73886 8.25622
1875 2 10.3686 5.04888 8.73885 2.35453 0.349507 -3.42343
979 2 14.324 5.04941 5.36952 -3.85359 -6.9661 1.84136
1040 1 16.0855 6.90559 5.53706 4.40464 3.67503 4.39831
1878 2 15.7657 4.92871 7.07305 9.68327 0.154623 7.23281
1937 2 14.2899 6.78165 7.18853 2.85936 0.545707 3.00672
983 3 17.621 5.28514 5.14937 8.88673 2.27093 0.489686
1039 3 14.3297 8.67261 5.37813 0.418095 -1.57006 -1.87177
1938 2 16.1362 8.58768 7.06124 -3.75373 -5.33108 -0.349559
1883 1 17.751 5.09456 8.49387 -5.03615 -2.79124 -6.66181
1941 2 18.0077 6.85436 7.07068 4.32942 -0.953377 9.03802
987 2 21.5184 5.0993 5.23351 -10.0861 1.55005 6.76175
1044 1 19.66 6.84137 5.24037 5.45165 7.20574 1.86247
1882 2 19.7279 5.258 6.97739 1.11258 -2.06156 -4.65679
1945 1 21.5203 7.11634 7.07061 4.6554 -3.05951 -0.871852
1047 2 21.2568 8.77782 5.20871 2.65453 5.78986 5.15596
1887 1 21.5059 5.11347 8.45124 -4.29424 -0.547635 -1.13618
991 2 24.6918 5.48654 5.17932 -1.57497 -3.97017 3.58886
1048 1 23.0627 7.17683 5.09861 -0.664829 -1.40764 4.28068
1886 2 23.0284 5.0994 6.82581 1.8894 2.38011 -2.18561
1949 2 24.9999 7.03226 7.14957 -6.68836 -9.0477 0.382588
1051 1 24.9569 8.66914 5.19689 -3.3624 -4.13725 2.2003
1948 1 23.4437 6.77313 8.69064 -0.50742 -5.79593 1.82001
1891 1 25.0219 5.28122 8.61394 1.05716 1.54065 -2.01151
1922 3 1.79341 8.88857 6.70986 -2.83491 1.87311 1.05788
1084 2 1.86339 10.6058 4.84159 3.49026 3.94529 0.371547
1087 1 3.5352 12.5241 5.09889 7.64237 -3.82903 -0.162979
1982 1 1.81822 12.3246 6.91681 -0.68688 3.62636 -5.4765
1985 3 3.5204 10.69 6.90674 3.88093 -0.436884 -1.28248
1981 1 -0.0446475 10.3314 6.66892 -1.04149 0.623146 2.11096
1083 1 -0.0134391 12.3296 4.89981 1.17695 -3.30556 -2.81589
1984 2 1.49609 10.4609 8.59803 0.509438 1.42456 0.871715
1926 2 5.14827 8.91122 6.92556 3.70419 -2.59764 3.02135
1088 2 5.29121 10.7738 5.32149 2.89042 -0.602793 4.76685
1091 3 7.20547 12.2619 5.21808 5.1922 -1.58981 4.32693
1986 1 5.25146 12.3923 7.02802 6.03953 -0.250484 -0.220624
1989 3 6.90904 10.5995 7.07256 6.1604 -0.385461 -2.86038
1988 1 5.13265 10.6186 8.72702 3.95047 -1.92605 0.126493
1930 3 8.86594 8.89079 6.91559 5.55789 -1.70968 4.20517
1990 1 8.88066 12.573 7.19042 5.94708 -3.54723 -1.96806
1092 3 9.02848 10.6627 4.99263 1.16244 -0.724374 2.09967
1095 2 10.5643 12.4315 5.29723 7.03398 -1.60729 -4.47145
1096 3 12.1446 10.3153 5.32316 0.0843771 -2.01289 2.38044
1993 3 10.4303 10.6689 7.10995 -0.20424 4.84852 3.43138
1994 1 12.232 12.5355 6.96505 4.41476 4.46007 3.6883
1099 2 13.9146 12.287 5.30254 -1.03723 -3.15545 0.882224
1100 1 16.0029 10.7626 5.18858 -0.179038 1.24048 2.63272
1997 2 13.9858 10.5121 7.15126 3.13217 -0.477072 -3.72772
1998 3 15.6924 12.6192 6.88225 0.122521 4.1281 -4.14712
1103 1 17.6371 12.421 5.17625 1.48694 -3.6178 -2.76867
1999 1 14.0371 12.2939 8.72212 -1.65785 -0.757112 2.7846
2000 2 15.9439 10.8366 8.66373 6.91395 1.28344 -0.402154
2001 2 17.7133 10.6307 6.95944 -0.930019 2.37198 0.517901
1942 1 19.541 8.82174 7.1009 5.57593 4.82281 6.44632
1043 2 17.8608 8.90729 5.15878 -5.80118 -1.32264 -6.37021
1104 3 19.5943 10.5036 5.1561 1.413 -1.85768 -0.287891
1107 2 21.3383 12.2594 5.12891 -2.02366 -10.5124 -0.26746
2002 1 19.4107 12.5016 7.03702 -2.38214 0.697917 -2.86189
2005 1 21.2965 10.746 6.88401 -2.97863 2.38634 8.20898
1112 2 26.5593 10.3031 5.43111 5.4158 5.5969 -3.199
1946 2 22.994 8.87106 7.05106 -1.6588 -1.25461 7.8797
1108 1 23.0212 10.5347 5.07897 -0.0054714 1.34771 2.18377
1111 1 24.9956 12.5347 5.15068 -0.0643129 -0.893193 2.07058
2006 2 23.2836 12.5284 6.59962 -2.57444 -1.10708 -0.151499
2009 2 24.9204 10.4059 6.91506 -3.70751 3.05425 6.91426
2011 2 24.891 12.4707 8.42871 -1.24346 2.94446 -4.41809
2008 1 23.191 10.6036 8.56549 -3.47207 -0.636931 -5.274
2010 1 26.7329 12.5337 6.94918 -2.11076 1.24924 -5.15732
1144 1 1.72263 14.0578 5.29585 -2.4404 0.760613 -0.092668
1147 2 3.35484 15.999 5.29262 6.74317 -4.29388 -2.53451
2042 3 1.4974 15.8268 7.16985 -3.30103 -2.83025 3.47778
2045 2 3.55897 14.0835 7.19606 1.14697 -1.37043 -0.307267
1204 3 1.55422 17.6414 5.51848 3.30879 -1.5592 5.57234
2105 3 3.35624 17.7705 7.16141 4.05537 4.46925 -0.354625
2041 2 -0.159692 14.0912 6.77252 -1.56779 5.05779 0.220082
1148 1 5.27255 14.0807 5.27043 0.698007 -0.794507 -1.18505
1151 3 7.03283 15.8923 5.04538 2.97994 2.8801 0.335911
2046 1 4.87356 15.9274 7.12826 -8.21302 0.909567 -1.56765
2049 2 6.75071 14.4138 7.02133 0.104304 1.21792 1.99062
1152 1 8.75581 14.112 5.41531 5.39361 3.16258 0.889191
2050 3 8.63554 15.9199 7.24999 4.64308 -1.63852 1.58728
2109 3 7.02522 17.6156 6.93664 6.26301 0.892095 -4.49858
2108 2 5.34157 17.7139 8.70327 6.20671 -0.0164417 3.79077
1208 3 5.14551 17.6776 5.46576 -0.632624 -4.82981 1.60376
1212 2 8.96283 17.6343 5.32359 2.35697 0.479971 -7.26624
1155 3 10.7093 16.0631 5.49444 0.803686 -5.89524 -12.3147
1156 1 12.4792 14.1961 5.29529 -0.295891 -1.12632 -4.43974
2053 2 10.6203 14.141 7.0838 1.3241 0.862068 4.92411
2054 1 12.5507 15.8848 7.00108 -1.19949 3.55154 1.35961
1216 1 12.2777 17.7084 5.34266 -0.380207 1.87388 1.61324
2052 1 8.81856 14.0656 8.69339 -3.49325 -3.27691 1.15624
1159 2 14.1865 15.922 5.07547 -3.93835 1.66494 -3.72545
1160 1 15.9194 14.5485 5.33978 1.42006 -1.5759 3.90319
2057 2 13.9738 14.1884 6.88912 3.73546 1.65019 -1.27611
2058 1 15.7188 16.1763 7.05885 1.33106 7.52486 -4.72459
2061 2 17.4147 14.217 6.83804 -2.72841 -4.32798 -3.47994
2063 1 17.4952 16.0862 8.61433 -9.88531 -0.870121 -1.05261
1163 1 17.9054 16.0895 5.30468 -2.33588 0.0136555 -1.10787
1164 2 19.4419 14.1203 5.35082 1.15467 -1.63429 -0.341724
1167 3 21.2719 15.7256 5.28907 -2.67732 2.30803 -7.194
2062 1 19.5085 15.7702 7.25 3.46167 -0.587346 -9.66725
2065 1 21.3801 13.9659 7.15241 0.353901 0.424223 -1.02784
2125 1 20.9354 17.5642 6.78949 -3.08524 -0.631597 4.39002
2124 1 19.6248 17.5887 8.73563 -2.92322 -5.92084 -2.59493
2070 3 26.6401 16.1305 6.97247 -2.09226 -1.68161 -4.672
2072 3 26.4561 14.1366 8.69183 2.3646 1.22567 4.55289
1168 3 23.1881 14.2255 4.85131 -2.4578 0.564819 -0.336732
1171 2 25.1797 16.0928 5.00508 -0.139671 5.22166 7.3723
2066 1 23.1533 16.1138 6.98103 -1.07378 2.25424 -0.34962
2069 2 24.8678 14.316 6.73406 5.06399 4.42318 2.24319
2071 2 24.758 16.0184 8.7017 -7.31827 -5.20496 -3.5038
1207 3 3.39364 19.4999 5.19936 4.08138 -3.71705 -0.541539
1264 1 1.45336 21.1277 5.2417 -1.56491 2.02584 -2.36869
2102 1 1.65061 19.6325 7.23525 0.998372 1.43813 1.42291
2165 3 3.75095 21.5656 6.88188 -5.26561 1.60199 -1.47332
2164 3 1.70095 21.4684 8.67321 -1.35513 -3.56202 -0.227985
1203 3 -0.16442 19.1348 4.85019 -2.54785 4.338 3.16167
2161 2 -0.104654 21.1237 6.81293 -1.59404 3.29832 -4.89137
2103 3 -0.210012 19.6417 8.71382 -2.42124 1.58679 -1.20096
1211 3 6.80558 19.5359 5.33719 5.73009 1.63794 4.36985
1268 2 5.40658 21.257 5.22856 4.26679 -3.17309 2.51035
2106 3 5.11262 19.5325 7.02333 -0.352397 -3.41985 3.46297
2169 2 7.19661 21.5727 7.11225 0.915045 0.61419 4.14365
1272 3 8.64371 21.3102 5.16974 6.11007 -9.83682 8.51068
2111 3 6.95504 19.4624 8.47475 0.172478 0.317405 -0.553746
2110 3 8.76603 19.5585 6.75081 -2.75276 0.502264 -2.16115
2113 3 10.6197 17.7657 7.0752 -0.229811 -3.6233 -1.64496
1215 3 10.5914 19.6734 5.18978 -6.21674 -2.69241 4.97179
1276 3 12.5174 21.463 5.16378 1.26405 -4.85246 -1.08394
2114 3 12.4722 19.7512 6.92377 4.93194 -3.9176 4.58103
2173 2 10.2945 21.3598 7.08827 -1.25418 0.847369 0.320844
2115 1 10.3585 19.7942 8.77489 -4.57962 -1.87968 0.216858
2117 2 14.0237 17.8744 6.85189 -2.89361 1.94111 -1.58558
1220 3 16.0473 17.7801 5.28168 -0.45259 -0.621168 -0.0464304
1219 2 14.2608 19.629 5.11016 -0.569843 -0.00513303 -1.41242
1280 1 15.8258 21.3909 5.43318 1.47439 2.15827 1.53201
2118 1 15.6437 19.6498 7.13426 -2.74258 -2.62951 0.0893634
2177 2 14.3484 21.3812 7.19439 4.92636 -3.66321 2.60641
2181 1 17.4576 21.3464 6.89546 3.02449 3.6235 -3.9102
1223 2 17.4877 19.69 4.95551 1.12948 -1.46037 6.98876
2121 2 17.6654 17.9259 7.26678 -7.17089 5.36449 -3.96771
2123 2 17.9213 19.5967 8.71843 4.55654 -0.847715 1.22948
1224 2 19.3663 17.9559 4.88542 -5.29356 3.3719 -8.62976
1227 1 21.1438 19.8927 5.188 2.32252 -1.14014 2.13531
1284 1 19.4114 21.5796 4.75624 -2.24597 -7.22975 0.655081
2122 3 19.3597 19.7374 6.75385 4.74816 3.44839 2.52887
2185 2 21.1975 21.6495 7.05108 -0.699598 -4.83927 -8.65181
2127 1 21.0267 19.5185 8.45421 -0.258605 9.37533 -0.472078
2184 2 19.3442 21.4877 8.63631 -0.658377 -4.87757 -3.99966
2129 1 24.7861 17.8272 6.87879 0.381685 -4.53927 2.44717
1228 3 22.8264 18.0115 5.31574 -5.19733 -0.655063 -4.00846
1231 3 24.8164 19.576 5.15184 0.341353 1.5168 -1.53182
1288 3 23.1702 21.4664 5.4109 -2.72298 -1.64666 2.53431
2126 2 22.7452 19.5098 6.95299 5.72406 3.86457 1.15829
2189 3 24.9305 21.2536 7.11559 -1.80843 -0.0894276 2.4703
2131 1 24.4703 19.6274 8.64244 -5.55743 1.58753 1.36566
2132 3 26.4183 17.958 8.68792 -4.47773 0.0780632 -3.61606
2222 2 1.83178 26.5899 6.61323 6.59462 -2.47668 1.66368
1267 3 3.2493 23.1351 5.12171 7.75058 3.60914 -11.8829
1324 1 1.37407 24.8483 5.07315 -0.0138738 1.48633 2.16733
2162 1 1.5379 23.1302 6.85946 -0.679767 2.37395 -2.91989
2225 1 3.44999 24.6824 6.83745 -1.73939 -2.2649 -1.66568
1327 2 3.4828 26.2325 5.0351 4.94569 -0.760195 2.74427
2167 2 3.46339 23.3778 8.69504 -1.70782 8.38653 3.87594
2224 2 1.54174 24.8769 8.71572 -0.340331 -1.74336 4.63621
2223 1 -0.143599 26.7557 8.37962 -4.13138 3.85041 3.4532
2227 1 3.30996 26.672 8.5631 -5.55705 4.73844 1.48408
1271 2 6.95439 23.1181 5.16829 -2.34681 0.931557 2.3631
1328 1 5.25948 24.8058 5.03631 1.46102 1.2384 2.54528
2166 1 5.26719 23.2421 6.74283 -0.197648 0.897573 -2.61668
2229 2 6.89189 24.9922 6.8602 -1.93747 -6.1679 -0.836282
2226 2 5.03482 26.5888 6.87154 -3.08104 0.330693 -4.28191
2170 1 8.7226 23.2804 6.92893 0.360678 5.22519 -7.91919
1331 3 6.8802 26.5934 5.04846 5.6788 4.82576 -1.72435
2232 2 8.4948 25.1423 8.70352 -3.19488 1.37399 -1.9578
2171 1 6.93391 23.3467 8.6367 2.38138 1.32059 -2.13629
1332 3 8.77078 24.8703 5.0499 -2.4669 0.369097 2.10151