ITEM: TIMESTEP
56400
ITEM: NUMBER OF ATOMS
13500
ITEM: BOX BOUNDS pp pp pp
-2.1174937681742634e-01 5.3731749376810754e+01
-2.1174937681742634e-01 5.3731749376810754e+01
-2.1174937681742634e-01 5.3731749376810754e+01
ITEM: ATOMS id type x y z vx vy vz
7 3 3.6448 1.46599 1.5853 -1.54804 6.24135 1.90754
64 2 1.78369 3.14101 1.59432 -0.349508 4.32877 4.76622
902 3 1.62913 1.55484 3.30452 -2.43572 -0.994811 -0.0638223
965 3 3.30888 3.07051 3.5013 0.681077 3.08303 -2.07469
905 1 3.49931 -0.2198 3.35578 -1.75356 -5.89905 4.16403
4 3 1.75005 -0.208738 1.49764 -0.708113 -0.234356 4.53776
901 3 0.114913 -0.118856 3.36079 -3.88688 4.51232 0.169275
11 3 7.04736 1.68652 1.56561 -3.45873 -2.10319 0.310869
68 1 5.30615 3.49507 1.332 5.35322 -0.917918 6.69564
906 2 5.30085 1.43592 3.2037 2.82418 -2.36624 -1.68044
969 1 6.8683 3.10169 3.38944 -4.66061 -1.27394 2.50722
69 2 7.06758 3.27915 -0.0597127 -4.40132 -2.97573 -2.97374
6 3 5.25023 1.66707 -0.211411 4.35702 2.27564 -0.0138913
910 1 9.22183 1.66493 3.30615 -7.19017 -6.77575 1.78636
72 3 8.78416 3.60512 1.5762 -3.52036 8.84089 -5.7693
15 2 10.6624 1.55675 1.512 -2.9742 9.55747 -2.6294
76 3 12.3181 3.41881 1.33243 -0.429225 0.263755 -1.48645
914 1 12.333 1.5662 3.22519 2.32277 -4.20693 3.88639
973 1 10.6784 3.46564 3.3142 4.71159 4.4376 -5.31987
10 1 8.991 1.5261 0.00315985 -2.65725 2.01786 -0.113784
913 1 10.7256 -0.118757 3.36446 0.71299 2.83556 -5.66541
14 3 12.2619 1.64816 -0.177947 1.81609 1.79656 1.29192
19 3 14.1498 1.53792 1.50852 4.50479 -1.74897 -0.610525
80 3 16.0189 3.56206 1.60099 3.86381 3.94959 -2.40883
918 3 15.9508 1.73419 3.3296 2.7459 0.776753 1.83655
977 3 14.1049 3.24916 3.34787 -1.06516 9.7627 -0.0250917
17 3 14.0718 -0.112832 -0.192584 -0.521636 -6.64955 -1.92861
20 3 15.8495 -0.169847 1.74483 0.32644 0.418356 -3.11888
18 2 16.1296 1.38951 -0.108222 4.01807 -0.779998 3.21109
81 1 17.5699 3.64728 -0.184313 6.88593 -2.92403 4.18646
981 2 17.8404 3.69042 3.51665 0.741229 -1.04431 6.36872
23 3 17.8996 1.46257 1.49393 -6.44071 -4.92902 3.58162
27 3 21.0387 1.50716 1.34753 -3.61866 -2.13663 -0.55305
84 3 19.4655 3.61233 1.64031 -2.12785 -3.04408 0.0666081
922 3 19.4279 1.78721 3.52143 -0.101883 -4.59934 2.77302
985 1 21.4009 3.70798 3.3967 2.56823 3.56803 2.56967
925 3 21.1456 0.082453 3.34795 -2.88654 -5.07019 -4.52991
85 3 21.1824 3.66613 -0.12355 -4.09825 2.34812 0.326315
31 1 24.8465 1.65105 1.74169 2.73127 -2.32511 3.47524
88 2 23.0985 3.60714 1.41388 1.29686 -7.25081 -1.47919
926 3 22.8608 1.60918 3.16596 0.882947 4.88678 -4.64188
989 3 24.8816 3.47609 3.28227 5.01538 1.88041 9.8314
92 3 26.6031 3.39523 1.49209 2.25647 4.22692 3.25348
28 2 23.0133 -0.161628 1.47815 6.81644 -1.23233 7.20347
89 3 24.7708 3.34126 -0.147668 -1.57923 -0.0869704 1.27863
30 2 26.7245 1.6143 -0.1757 0.106042 -1.96889 4.11792
29 1 24.7142 -0.184277 -0.182164 -1.47286 3.95149 -3.22355
930 2 26.742 1.42933 3.44268 -8.28104 0.0790977 3.06163
67 2 3.61945 5.06405 1.69396 3.11084 -1.93944 -8.1491
124 2 1.48293 6.97115 1.74548 3.8371 6.43415 3.44182
962 1 1.83534 5.02184 3.33693 -0.474678 -5.9583 -1.7037
1025 2 3.49977 6.88553 3.56265 -1.1529 1.44453 1.29839
1022 3 1.89276 8.65067 3.26916 1.0132 5.71216 -1.2525
122 2 1.72029 8.72848 0.00442787 0.450615 4.06007 1.35217
125 1 3.35195 7.08934 0.226404 2.74036 2.25592 -6.4739
1021 2 -0.157665 6.96933 3.49753 -4.80501 -9.3338 0.329276
63 1 0.0927392 5.14448 1.80164 7.85891 3.22838 0.541414
71 2 6.89025 5.32025 1.55462 1.75798 -1.24264 1.81656
128 1 5.14141 6.80295 1.62799 -3.31642 -0.677844 -5.72858
966 2 5.31679 4.90458 3.5592 1.90801 5.76457 1.42522
1029 3 7.03101 6.90771 3.42423 1.68539 5.79187 6.40222
1026 2 5.08596 8.71631 3.35977 3.73412 5.55318 3.48797
70 1 8.66603 5.2414 -3.03806e-05 -2.8643 0.584766 -1.91393
129 2 6.72427 7.15445 -0.142153 2.54947 3.25964 1.30597
132 2 8.75689 7.21002 1.64999 -4.35438 -4.8683 -0.701066
970 1 8.84859 5.29886 3.21156 -3.5363 5.87266 7.49955
75 2 10.508 5.25905 1.44938 -4.06936 -3.51898 -0.507348
136 1 12.2852 7.09104 1.62526 -0.0579309 1.80293 -2.26022
974 1 12.3821 5.17695 3.12561 -4.8023 0.133218 -5.06526
1033 3 10.6001 6.93458 3.26569 -0.40617 -1.227 1.74834
1034 2 12.1918 8.70933 3.49154 4.83306 -3.10095 5.06686
79 2 14.1493 5.29164 1.59134 3.23687 6.43337 1.30651
140 3 15.961 7.28946 1.61409 -3.93745 0.957142 2.89886
978 1 15.8097 5.35591 3.32808 -6.80406 -0.816847 4.05197
1037 3 14.3233 7.17336 3.60294 3.25262 -0.512847 3.48198
83 3 17.6044 5.31835 1.83138 -3.24349 2.39864 -6.96914
1041 2 17.6843 7.22571 3.3881 -7.96494 3.52983 8.79808
87 2 21.3903 5.26043 1.6677 -3.69054 -6.96536 2.90734
144 1 19.392 7.09231 1.78374 -4.44836 2.00458 -2.6988
982 1 19.4034 5.38186 3.47924 2.03812 -0.79423 0.516348
1045 2 21.4132 6.98488 3.37942 3.12078 1.45312 -3.21429
141 2 17.7641 7.18902 -0.000697526 -5.02216 -7.32022 6.61424
91 2 24.5555 5.4179 1.36105 4.0109 -4.39057 -4.65809
148 3 22.9351 7.33905 1.44451 3.77415 4.52178 3.88372
986 1 23.3243 5.66057 3.36793 -0.297786 0.189702 4.1884
1049 2 25.1128 7.44617 3.20453 0.758953 -1.32804 3.22792
990 3 26.4662 5.3443 3.18126 -3.63618 6.6468 2.88722
152 1 26.7084 7.16696 1.24582 -2.31582 2.59837 -7.61433
1046 1 23.1851 8.67562 3.51029 2.42826 -4.56503 -3.93604
183 3 -0.180707 12.2041 1.62675 2.47622 2.0205 -4.5219
127 1 3.52917 8.9754 1.5614 4.33885 3.53952 -0.480141
184 3 1.52075 10.5751 1.74605 1.06897 -6.09991 6.68218
187 3 3.50646 12.5716 1.63984 -3.93601 0.998916 -0.520542
1082 3 1.5578 12.3989 3.49503 -0.785957 4.42443 -0.493029
1085 1 3.40559 10.5666 3.49644 0.0335093 2.67942 -1.74644
185 3 3.334 10.9652 0.0452107 -0.838107 5.81461 -10.147
131 1 6.88743 8.97366 1.59323 -6.65382 3.28388 6.51411
188 2 5.26078 10.7091 1.63155 4.20675 1.93483 5.18402
191 1 6.82239 12.3794 1.48416 -1.73904 1.08569 4.87909
1086 1 5.20043 12.482 3.63307 -0.0447976 7.14185 -10.2465
1089 3 7.17001 10.7067 3.43261 -5.12447 -1.01938 4.43635
1090 3 8.57045 12.451 3.41677 -1.25457 -0.536442 -1.60464
192 2 8.78093 10.4893 1.79564 3.22321 2.34914 4.2138
130 2 8.65937 9.19147 -0.135122 -1.9006 -7.80267 -8.25564
186 3 5.03307 12.5033 -0.10059 -3.09893 -0.333587 4.78742
1030 1 8.96891 8.86093 3.36416 -5.95796 1.66984 4.0684
135 2 10.6874 8.99173 1.33166 0.177754 4.39332 -3.49116
195 3 10.7497 12.4884 1.72983 5.394 2.08236 -5.71046
196 1 12.4208 10.653 1.46958 -0.257852 5.11523 -0.393402
1093 3 10.6725 10.6016 3.38478 5.14977 5.55069 2.78793
1094 2 12.3297 12.4626 3.51755 0.0451332 -0.963247 2.31191
194 2 12.5552 12.4341 -0.174083 -5.8872 0.0367453 0.69372
1038 2 15.8555 8.95551 3.33699 0.696006 0.318316 -1.29281
139 3 14.1792 8.99644 1.45785 0.104945 -5.81346 1.34106
199 3 14.208 12.4958 1.47728 -7.17419 2.38054 -8.24153
200 2 15.8367 10.6979 1.62814 -3.28434 -3.31368 5.43857
1097 1 14.1572 10.7702 3.22377 2.94843 1.19626 -0.833573
1098 2 15.9439 12.5321 3.39843 0.555407 4.47232 -3.49944
203 3 17.6685 12.2247 1.68487 -0.786204 0.979151 -3.72755
1101 3 17.6929 10.5971 3.42999 1.3561 1.10627 1.29972
143 1 17.7412 8.82562 1.61211 -0.361553 -3.63926 -4.29019
201 2 17.5951 10.5723 -0.129281 -3.8472 -0.370229 2.72577
147 2 21.0351 8.83897 1.34136 9.85982 6.22841 -3.37761
1042 1 19.7808 8.87938 3.40201 0.406974 -5.95903 0.43409
204 1 19.5825 10.472 1.63783 1.8738 -0.624419 -1.45797
207 3 21.3084 12.3296 1.60709 0.063225 -3.3856 -3.34028
1102 3 19.5972 12.2413 3.3851 -10.1937 0.864408 -4.35798
1105 3 21.6509 10.5198 3.17161 -0.320282 -1.55884 -4.5983
205 1 21.2382 10.6715 -0.105823 0.376934 -2.39859 -4.04983
202 2 19.3169 12.3191 -0.0720491 3.85892 -5.42968 -0.815472
151 2 24.871 8.9191 1.33034 1.24524 -0.913856 -0.599094
208 3 23.3314 10.7944 1.55411 -3.29121 1.68865 4.25707
211 3 25.1196 12.4636 1.28999 -5.2678 -1.53889 -3.84305
1106 2 23.2787 12.4068 3.43603 0.648532 -2.94238 -0.241444
1109 3 25.092 10.749 3.29323 -1.20586 4.34149 9.31018
209 1 25.1119 10.5591 -0.154696 -4.43646 0.835372 3.472
244 1 1.48395 13.9978 1.53292 2.76828 -5.85067 2.31736
247 1 3.2967 16.1279 1.79479 4.0982 0.877459 2.05548
1142 2 1.19701 16.1615 3.44438 9.37298 6.29163 -6.43627
1145 2 3.23596 14.3657 3.37105 -2.5023 -7.60995 4.80854
245 2 3.20216 14.3285 -0.0160147 -1.28429 -1.48579 3.93271
1141 2 -0.103991 14.2389 3.38917 3.68138 4.74717 -4.61948
243 2 -0.177548 16.0979 1.36843 1.52336 3.72598 4.32582
248 3 5.11066 14.2483 1.67354 2.10986 -3.80309 -1.28839
251 3 6.77388 16.0042 1.53953 8.71705 -2.90147 3.35315
1146 3 4.78012 16.0047 3.41952 -5.03198 3.79171 -2.65185
1149 2 6.86163 14.2962 3.42267 6.85968 -2.60853 3.199
1150 3 8.64702 15.868 3.34655 1.62515 3.97428 -0.0766046
1209 3 6.8089 17.7066 3.21327 -1.93059 1.40363 2.31198
249 3 6.91352 13.9851 -0.0293464 -0.542345 0.556223 3.70259
252 3 8.85608 14.1386 1.70204 1.32769 1.69274 1.77163
255 2 10.4612 16.0162 1.19259 3.50393 -1.60302 0.379125
256 1 12.3249 14.3069 1.83619 3.59545 -1.74689 -4.28839
1153 3 10.6726 14.2353 3.45559 2.19466 6.05347 -7.43858
1154 2 12.3571 16.1484 3.34939 -4.76511 5.39931 0.307471
1213 3 10.6685 17.6137 3.15849 -11.8435 -1.11804 -0.196318
312 1 8.83336 17.6056 1.555 -9.17425 1.395 -2.05613
316 2 12.3748 17.5885 1.54166 0.486937 1.58652 0.52019
250 2 8.88496 16.0119 -0.207181 2.01829 2.97788 1.83266
259 1 14.3372 15.9113 1.72448 2.64376 2.24665 -4.15686
260 1 16.0168 14.2203 1.58256 1.97375 -0.342012 4.02139
1157 1 14.0158 14.4236 3.56783 0.565339 0.468108 6.92582
1158 2 16.2378 15.9561 3.6399 0.53788 -3.6541 -2.32893
257 2 14.0893 14.4087 0.0599427 2.22285 6.4542 -4.32361
317 2 14.2975 17.6667 -0.188774 -0.617962 4.22744 0.745814
261 3 17.5685 13.8807 -0.130344 -0.469273 6.36988 0.950219
1161 1 17.8326 14.19 3.35964 3.3705 -5.48278 2.74984
263 3 17.8104 16.0357 1.46801 0.959674 0.0537414 -0.0389843
264 3 19.4539 14.0371 1.4104 1.99677 7.29666 -5.81211
267 3 21.2995 16.0794 1.67782 -9.23628 3.82152 12.1999
1162 3 19.2459 16.0906 3.39684 2.58129 2.45627 -1.22413
1165 3 21.1853 14.0685 3.48026 -1.28225 0.645101 -0.561007
268 3 23.0726 14.0078 1.58047 5.98058 -2.46002 3.60636
271 3 25.0124 15.9618 1.36803 1.5581 -6.48524 -3.54926
1166 3 23.2872 15.8992 3.51666 -0.543479 0.209892 1.25722
1169 1 25.0732 14.0842 3.30018 2.56652 -0.0562566 -3.05711
1229 3 24.9404 17.6455 3.21258 -1.24232 -0.989771 -3.99597
304 1 1.48068 17.9004 1.37871 -0.790079 4.35101 -7.00926
1205 1 3.14075 17.9855 3.18374 -1.43091 3.91533 1.14855
307 3 3.47488 19.9367 1.74996 -2.4547 0.416254 0.948822
364 3 1.44365 21.5166 1.43929 -9.40766 -0.508216 -0.477843
1202 2 1.48109 19.6101 3.4059 3.9832 6.85053 -2.65515
1265 3 3.5237 21.5766 3.44552 1.83448 -0.898926 -1.03979
303 2 -0.112424 19.682 1.61949 -4.21751 0.334848 -3.95857
365 2 3.32179 21.7129 -0.184149 -0.886262 -1.21106 6.39592
308 2 4.90108 17.9074 1.77806 1.79989 0.362765 1.22726
309 2 7.2186 17.8949 0.0326719 -2.20408 1.54275 0.692766
311 2 6.8176 19.5285 1.66823 -4.70107 0.766108 2.66123
368 3 5.11935 21.8403 1.59251 -0.757094 4.41604 -2.98805
1206 3 5.15294 19.6513 3.44748 0.188814 0.573151 -5.56976
1269 1 6.88144 21.5064 3.53792 -5.56282 -3.73404 0.0905552
372 3 8.65618 21.5817 1.82683 2.5345 -4.27345 3.56331
1210 2 8.7177 19.5454 3.1087 1.36723 -1.75424 -0.203018
310 2 8.59938 19.6422 0.000568292 -1.65449 -6.42558 3.08017
315 1 10.4491 19.4958 1.67346 3.02621 -2.97085 2.00376
376 2 12.3741 21.3343 1.36545 0.828468 -7.86101 1.63092
1214 3 12.2333 19.4491 3.04003 -0.583553 2.06362 4.30116
1273 3 10.5001 21.505 3.21831 3.82502 -3.13453 2.30976
314 2 12.4713 19.417 -0.189274 -0.678666 3.06787 -1.76533
373 1 10.5283 21.543 0.000638132 -2.51107 6.2708 2.5111
1217 1 14.1959 17.9117 3.25194 2.27651 5.54892 2.57221
320 2 16.1669 17.7921 1.58798 5.67196 -6.76832 4.31283
319 3 14.2202 19.4506 1.58637 5.66812 -1.06044 -0.241431
380 2 15.936 21.1448 1.73242 5.46409 2.1606 2.89955
1218 2 16.0224 19.4775 3.33853 -3.93992 6.89197 5.72652
1277 1 14.0609 21.3462 3.43318 5.46367 -0.419708 0.737186
381 1 17.7448 21.2806 -0.199083 4.69276 -3.88961 -0.701166
318 2 15.9295 19.7108 -0.123398 3.89057 7.18712 1.37251
377 1 14.3888 21.439 -0.163744 4.36566 2.12928 4.7924
1221 1 17.8891 17.9383 3.5876 3.47041 2.14887 0.698719
324 2 19.3868 17.8423 1.7278 1.67328 1.41107 -1.02716
1225 1 21.2023 18.0472 3.19725 -0.788703 -0.447432 4.76509
1281 1 17.9149 21.5637 3.21267 -3.72696 -1.95054 0.50713
323 1 17.8455 19.5878 1.57982 1.3696 -0.819037 -0.680051
327 3 21.3241 19.6843 1.49286 -0.542581 1.99458 -1.24639
384 2 19.4242 21.4221 1.37465 4.50408 -2.98068 -4.04503
1222 3 19.4006 19.816 3.421 -5.34995 5.07297 2.67746
1285 2 21.4594 21.337 3.31826 -3.1372 0.552585 7.28614
325 3 21.0819 17.8009 -0.192783 6.63073 -3.13029 4.84938
328 3 23.0927 17.8391 1.57404 -2.7765 -2.81574 1.69025
331 1 24.9926 19.5431 1.6655 -2.76192 1.8523 -4.63273
388 1 23.1922 21.4828 1.74974 -7.03725 1.29883 1.25222
1226 2 23.1597 19.5577 3.35728 2.58519 -1.91714 0.287315
1289 1 25.247 21.5748 3.3021 5.26869 -0.170352 0.634063
389 2 25.0294 20.9952 0.110852 4.93993 -1.26451 -0.0908968
1230 3 26.5912 19.607 3.41569 6.08734 -0.401647 -0.296785
326 3 23.1784 19.4876 -0.159378 -1.09721 -2.74848 3.12137
392 2 26.7217 21.1506 1.64554 -4.89434 0.569419 -2.55057
367 2 3.33869 23.3785 1.50367 -4.16678 -6.25287 0.241661
424 3 1.59656 25.0884 1.69526 -1.37704 5.91555 -0.398743
1262 1 1.58739 23.3262 3.72443 11.7344 1.41516 9.04602
1325 2 3.37172 24.8532 3.5139 -2.14587 0.638794 1.12872
1321 2 -0.208884 25.0639 3.51814 -3.81374 1.26361 2.94688
421 1 -0.0103014 25.1608 -0.0463814 2.85095 -3.04147 0.825107
427 2 3.6284 26.5253 1.3692 -1.73111 -2.90847 1.58669
425 2 3.23237 25.0613 -0.160363 6.4051 -3.54238 1.93281
371 2 6.95282 23.2369 1.71658 1.30777 -1.48784 6.52026
428 1 5.25712 24.8069 1.67871 -5.18315 -1.46119 1.52953
1266 3 5.30026 23.2886 3.60083 -1.79586 -6.73085 2.07791
1329 3 6.99379 25.1012 3.35778 -0.818787 -9.60784 1.11093
1270 1 8.49769 23.4009 3.59014 -0.28345 1.58356 -7.20636
432 3 8.58995 25.1228 1.64444 1.70545 5.17445 2.88322
375 3 10.4672 23.1336 1.63258 0.627803 2.03312 7.27524
436 3 12.103 24.911 1.54618 0.0154686 -3.43926 0.430973
1274 3 12.3886 23.145 3.46894 0.500263 -2.74868 1.63129
1333 3 10.5447 25.054 3.45425 -2.75475 3.36048 4.41573
1334 3 12.2073 26.704 3.43834 7.40264 2.28054 2.06432
374 3 12.6763 23.2711 0.0289815 -4.25221 2.2639 2.48498
370 2 8.84787 23.3361 -0.171208 -3.29784 5.83825 4.28627
379 2 14.2484 23.1853 1.74259 -6.01721 2.58368 1.89047
440 1 15.9209 25.0357 1.63309 -4.09158 -0.690564 -1.24482
1278 2 15.791 23.0713 3.48396 1.90413 -5.42799 3.21089
1337 1 14.081 24.958 3.53737 -3.82607 0.792635 -1.13907
437 3 14.0576 25.1191 -0.103446 -0.946968 -0.360266 2.96676
1341 2 17.5785 25.1171 3.52477 -3.85057 -2.22127 -1.77825
443 2 17.6572 26.6974 1.67594 -0.291452 -3.13461 0.0117901
383 1 17.8655 23.3566 1.59234 -2.55695 0.0667697 2.95461
387 2 21.2325 23.3747 1.36072 0.268762 -2.24634 0.0812855
444 1 19.3658 25.1137 1.52667 2.60657 -1.59047 -9.3263
1282 1 19.4374 23.2051 3.31971 -3.09253 1.58003 1.93949
1345 1 21.3518 24.9061 3.29049 0.456555 -0.631615 -3.64393
447 2 21.3555 26.6757 1.55634 2.00826 -2.25876 0.690913
391 1 24.5497 23.3139 1.65206 1.59625 -0.676154 2.52718
448 2 23.195 25.163 1.49521 -0.652671 -2.19222 2.2511
1286 3 22.8699 22.9347 3.61837 -4.575 0.787715 -3.96006
1349 3 24.8669 24.8938 3.3949 -4.65383 3.67419 -1.07637
1290 2 26.7316 23.1501 3.36279 6.00818 -1.46347 -2.12696
449 1 24.9752 25.3173 -0.0749816 -6.99485 0.723787 -3.85082
386 2 22.9399 23.1359 -0.0303586 0.976933 -0.695438 1.18116
390 1 26.1702 23.2527 -0.0873741 5.60248 3.10757 -3.96629
452 2 26.5789 25.097 1.6346 -1.88294 2.84239 -2.98942
1350 3 26.707 26.7141 3.48365 -2.82231 2.63932 -10.5469
903 3 -0.0730819 1.71462 5.22135 -3.25973 -1.54176 -0.477503
907 3 3.40398 1.75233 5.30453 -1.57832 4.1213 -4.72223
964 3 1.47923 3.49105 5.12565 2.37889 0.428216 0.530505
1802 1 1.63264 1.35551 6.90589 2.47976 5.902 0.711902
1865 3 3.35446 3.36011 6.96253 4.65565 0.689098 -5.21274
1864 3 1.46122 3.38065 8.77376 -1.35707 -10.2897 0.169706
904 3 1.72851 -0.131831 5.0302 -3.34962 -3.18369 0.0597313
1805 1 3.45714 -0.156081 7.02734 -2.36206 0.544173 -7.12382
1812 2 8.6481 -0.133209 8.64398 -3.78183 1.2077 -3.64835
1809 2 6.88648 -0.132843 7.11752 -0.823956 0.303482 8.67356
911 1 7.01169 1.42808 5.08173 2.54374 -2.2977 0.0328304
968 2 5.32634 3.19118 4.95426 0.833556 8.10419 0.0770521
1806 2 5.18105 1.53463 6.77522 3.75051 -8.36434 -2.41726
1869 1 6.93306 3.29309 6.82324 -1.98689 4.12808 -0.955972
1868 3 4.98549 3.33186 8.75211 0.411577 4.30036 0.783603
972 2 8.66436 3.2702 5.14422 -4.90342 2.4023 -3.41958
1810 2 8.82408 1.63626 6.92602 8.29499 -2.81521 7.38477
912 2 8.91568 -0.0519852 5.17575 -1.39534 -5.8483 -1.90938
915 1 10.6614 1.75377 5.10687 3.44261 -2.55032 1.41325
976 2 12.2841 3.45404 5.01112 -6.50305 2.51363 -0.370409
1814 2 12.2702 1.45169 6.84021 7.9321 -6.28335 2.27805
1873 1 10.5789 3.4015 6.70686 1.12728 1.06626 3.97672
1815 1 10.6991 1.40131 8.63399 0.414507 4.26271 -3.92185
1876 2 12.4159 3.54723 8.46741 -8.50163 -4.46435 6.85371
919 1 14.0179 1.58931 5.08096 1.10792 0.515073 -0.110566
980 1 15.9218 3.46123 4.99435 0.829987 -3.16555 1.28604
1818 2 15.869 1.46889 7.11946 1.28982 3.75088 -3.23563
1877 1 14.0876 3.2161 6.74416 0.0600383 2.14199 -5.63062
1881 1 17.5198 3.40282 6.78862 2.83181 2.7496 -0.894925
1880 2 15.8291 3.60555 8.64648 -3.23041 -2.48214 -0.750221
920 2 15.9903 -0.178976 5.08438 1.33824 -0.159636 3.84224
1823 1 17.6961 1.54198 8.50269 2.78533 9.49581 -5.02683
923 3 17.8732 1.54049 4.99589 7.67283 -1.02482 0.625536
927 3 21.3337 1.76346 5.25437 1.20219 -1.89516 -0.295813
984 1 19.6527 3.63033 5.10916 4.14408 -2.06257 -2.08619
1822 2 19.7007 1.89142 6.94686 -1.85538 -1.16766 2.34494
1885 1 21.2062 3.46063 7.20283 -0.574703 4.10497 -5.07961
924 3 19.4288 -0.0987222 5.24703 0.275731 3.10637 2.75427
1825 3 21.2025 -0.134465 6.85597 -3.94585 -2.94457 5.08556
932 3 26.6812 -0.170921 5.13624 -0.686183 3.40668 0.930653
992 1 26.6081 3.29799 5.311 -7.81433 0.521299 1.79181
1829 2 24.8146 -0.0803867 6.98132 1.97971 -0.0171893 -7.1569
931 1 24.6332 1.58058 4.8671 -8.16111 2.64395 -3.77315
988 3 23.1087 3.62037 5.13046 0.0333187 1.99916 -3.3466
1826 3 22.9341 1.49013 7.00522 0.780177 -2.41989 -0.783225
1889 2 24.7459 3.52734 6.96204 1.3236 3.5424 -1.89463
928 3 23.0138 -0.169236 5.17001 5.65431 -1.59564 -3.9368
1831 3 24.899 1.53129 8.56348 -4.55564 -10.7916 1.52352
1830 1 26.5513 1.49967 6.94477 -1.72398 1.93121 8.06219
967 1 3.42325 5.18121 5.48214 -4.4195 1.67268 -4.91242
1024 1 1.58046 6.83022 5.20773 9.80208 -0.576692 -3.81405
1862 2 1.2707 5.12504 7.06306 2.11452 1.60553 -5.42858
1925 2 3.18649 6.91317 7.15422 -4.63098 4.07598 -4.04545
1027 2 3.2426 8.53167 5.18871 0.633479 -1.73311 1.28632
1867 3 3.38827 5.33623 8.76857 1.31162 -2.26915 2.23196
1927 3 3.51629 8.54615 8.73664 3.22114 2.58981 0.431721
1023 1 -0.139312 8.7139 5.21155 -0.202926 -1.36641 -1.01416
1922 1 1.61511 8.64229 7.04369 2.1144 -5.02276 -4.30436
1921 2 -0.161025 7.07511 6.91406 4.78496 -1.81313 -2.50894
963 1 -0.187134 5.36936 5.07028 4.81481 -4.48139 -1.67386
971 1 7.22984 5.00988 4.96738 2.04614 -1.62088 -2.16047
1028 1 5.25118 6.83809 5.22039 -3.03152 8.49284 -1.21652
1866 2 5.3625 5.18562 6.95892 6.25148 -2.43723 1.25953
1929 2 7.08306 6.9158 6.8587 -1.73277 6.82776 7.26407
1928 1 5.36472 6.79677 8.60256 5.70172 2.61798 -0.768322
1926 3 5.01805 8.51808 6.91352 -3.93712 4.81143 7.60416
1870 2 8.49119 4.9504 6.95099 -8.34131 -4.62937 5.47266
1932 3 8.81918 7.08994 8.7022 -1.74682 0.18536 3.13385
1032 2 8.88302 7.04273 5.10691 1.99523 -1.68241 -1.6266
975 2 10.4719 5.17313 4.97973 -5.56085 0.711792 0.920798
1036 3 12.5402 6.99764 5.32484 3.57675 3.07759 0.20812
1874 1 12.4803 5.30078 6.82078 6.13617 -1.17439 1.66565
1933 3 10.5089 6.8836 6.89831 0.0188084 -0.565938 -1.15682
1875 2 10.707 4.99404 8.77647 1.11385 -3.68082 2.17775
1935 1 10.3037 8.7753 8.71579 -1.76351 1.04789 -3.22978
979 2 14.3106 5.2665 5.02004 3.91665 0.907516 2.23325
1040 1 16.0466 7.36339 5.07104 1.01557 -0.459116 -2.81304
1878 2 15.9475 5.32106 6.78369 0.742266 -3.26367 -0.492065
1937 2 14.0838 7.31639 6.98744 0.761599 -8.90095 -5.22237
1879 3 14.2512 5.19886 8.45176 4.97558 3.81608 -0.486033
1941 2 17.7603 6.9914 7.11062 1.52597 0.449043 -0.8214
1883 1 17.4742 5.16445 8.62264 -0.15172 -0.11555 -1.94008
1940 3 16.0044 7.06109 8.67419 3.87221 -1.8924 1.42135
983 2 17.8464 5.22179 5.3532 -1.75263 -6.63251 0.336515
987 2 21.4806 5.4687 5.4376 -4.7758 3.9823 1.87177
1044 1 19.4546 7.23057 5.32266 1.34676 -8.31243 2.45676
1882 3 19.5374 5.33553 6.98915 6.78452 -2.32983 -0.0275036
1945 1 21.3249 7.02041 7.19689 0.293515 -0.788085 3.19031
1047 2 21.3442 8.53274 5.46525 1.63411 2.44892 -3.13142
991 2 24.9315 5.48972 5.184 -3.75909 -0.969115 -4.82913
1048 1 23.3196 6.92099 5.29588 -4.09026 -0.849394 -0.369296
1886 1 23.2346 5.10629 7.30738 0.574585 1.02968 -2.37961
1949 2 25.3142 6.98988 6.86846 -0.428796 1.09684 1.49523
1051 2 25.0084 8.71579 5.23282 -3.4833 4.07904 4.79995
1946 3 23.129 8.66001 7.0211 4.69119 0.177145 1.1244
1948 3 23.3124 7.0081 8.61885 -3.5568 1.82444 0.145403
1890 1 26.7147 5.02341 7.15686 -4.06264 -3.10487 -5.07125
1084 2 1.55746 10.4757 5.22214 -4.2196 5.31613 -0.612074
1087 2 3.32386 12.4758 5.20552 -2.96686 -1.52693 2.59828
1982 2 1.70372 12.3546 6.91089 -0.271784 2.55581 -15.6221
1985 3 3.21665 10.4273 7.09871 1.46495 -7.60269 1.28904
1083 3 -0.145199 12.2936 5.16989 0.156705 -3.51804 5.12809
1987 3 3.27383 12.4487 8.72988 -2.81297 -0.601268 -2.07244
1031 1 7.02664 8.80226 5.24107 6.17378 -3.72598 0.145322
1930 1 8.77688 8.86111 6.80159 -0.182598 -0.624359 4.83045
1088 2 4.85814 10.5796 5.07111 3.30351 -1.43082 2.50296
1091 3 6.89447 12.3908 5.41955 0.510838 -0.326501 -1.32958
1986 1 5.04185 12.3607 6.9368 0.288229 -2.02343 -4.05609
1989 3 6.65777 10.6061 6.73192 0.635704 4.94448 -0.399708
1988 2 5.08469 10.6462 8.68041 0.546542 -0.175733 4.7179
1991 1 6.77701 12.3632 8.57017 9.69965 5.55524 0.592775
1092 2 8.73505 10.4904 5.23383 -5.06582 -2.6928 0.93063
1990 1 8.87601 12.2504 7.17266 2.36682 -2.58895 -2.88079
1934 1 12.1362 8.9374 7.08753 -1.96606 7.55563 -3.0072
1035 2 10.7549 8.90184 5.17543 0.543663 3.57519 6.41106
1095 1 10.3174 12.2298 5.24722 4.29909 -0.327518 -4.32916
1096 1 12.2695 10.8004 5.01871 -1.20218 -4.42228 -3.0467
1993 2 10.5158 10.6841 6.83583 -1.80873 8.01814 2.9228
1994 1 12.1734 12.4364 7.07357 -1.46734 1.85768 -11.9475
1996 2 12.0515 10.7668 8.66997 -0.162342 5.4462 -6.04371
1992 2 8.80785 10.4898 8.76628 -4.78814 -3.42943 -5.37249
1039 2 13.877 9.22269 5.29912 4.89201 2.04312 -5.53445
1938 1 15.8191 8.84514 6.97941 -0.465151 -7.64998 2.93234
1099 2 14.016 12.3801 5.08807 1.56843 -1.46378 0.163423
1100 3 15.9141 10.689 5.04047 1.42101 2.82612 -1.41395
1997 1 14.1348 10.841 6.81443 -2.18848 -0.220299 3.30405
1998 1 15.7455 12.4741 6.96991 1.42479 1.11142 0.806879
1103 1 17.7456 12.4123 5.15656 -0.0637533 -8.32552 -1.1207
2001 2 17.4765 10.9307 6.83449 0.923203 0.727465 1.04495
1939 1 14.0344 8.86864 8.6138 0.828487 -7.07555 2.79604
1043 2 17.7371 8.95468 5.39452 -2.34895 4.38423 -4.8599
1943 1 17.5961 8.99307 8.76769 8.18066 -2.31018 -0.871666
1947 2 21.3527 8.93797 8.6541 -1.90495 4.01404 -2.18043
1942 1 19.2631 8.939 7.29799 3.02661 0.550441 3.0902
1104 3 19.6568 10.4563 5.07804 -0.635279 -4.5473 0.499531
1107 2 21.3082 12.2477 5.23126 3.09332 0.809164 0.218546
2002 1 19.6651 12.1537 6.7935 4.04987 3.3402 -1.25697
2005 2 21.5827 10.5134 6.875 -4.44108 -3.07102 2.6287
2007 2 21.5214 12.1713 8.71241 0.219446 -2.78958 1.9077
2004 2 19.6164 10.836 8.72002 1.76262 -1.46251 -0.427686
1112 2 26.735 10.6339 5.05333 -5.0801 -0.865104 -3.93538
1108 1 23.293 10.5567 5.35144 0.342703 1.0166 4.03867
1111 1 25.0785 12.5796 5.31047 0.307099 -4.98646 1.12474
2006 2 23.2379 12.5213 7.05009 3.96001 3.9487 1.196
2009 1 24.8923 10.691 7.0838 0.934971 4.84093 -0.690454
1144 1 1.50453 14.3355 5.25681 5.77678 -0.30395 0.682692
1147 2 3.31446 16.2261 5.23347 -3.52084 3.83947 6.53736
2042 3 1.69374 15.9897 7.07651 -0.747395 -5.0354 -1.16441
2045 1 3.37573 14.1587 6.94474 -2.44686 -2.58121 -2.24287
2044 1 1.40074 14.1976 8.68256 2.34859 -0.377833 0.277271
2105 3 3.48575 17.624 7.14759 2.94039 4.81754 -1.03425
1143 1 -0.1848 16.1592 5.20374 -2.6727 0.258539 -0.0183049
1148 1 5.1095 14.2964 5.21961 2.79422 -1.91942 -0.366755
1151 3 6.76502 16.1417 5.04376 0.876329 4.62362 -3.95268
2046 3 5.30413 16.1538 6.96051 -7.00116 4.15757 8.53324
2049 2 6.78766 14.1582 7.16736 -3.49328 2.89951 1.00842
2050 3 8.70987 16.0233 6.90096 3.36043 1.54085 -2.52761
1152 3 8.49704 14.2905 5.41575 -3.30345 -4.10588 -2.64653
2048 2 5.09557 14.2233 8.62086 -5.74048 3.04739 1.65205
2051 1 6.94123 16.0498 8.67913 7.23294 -3.37449 -1.97969
1208 3 4.99792 17.7036 5.19434 3.22072 -2.26318 -0.772917
1155 2 10.5121 16.2005 5.35037 -0.595692 -0.908792 -3.96601
1156 1 12.3033 13.9812 5.46214 0.727807 5.81825 -7.09878
2053 2 10.4746 14.3988 7.04114 -5.70144 1.10904 6.35428
2054 1 12.1687 15.9079 7.00454 -7.46911 -0.403979 -0.864688
2116 3 12.4674 17.534 8.76352 -4.62102 5.3353 -0.676966
2113 3 10.2266 17.7558 7.16177 -6.10576 -4.32882 -6.24645
1159 2 14.1256 16.0331 5.31652 -0.545065 4.273 2.63317
1160 2 16.0669 14.2083 5.27742 0.807286 -4.43524 3.66718
2057 2 14.0585 14.0152 7.15951 6.84641 -5.30413 1.55857
2058 1 16.0509 15.921 6.87697 -2.8296 0.454121 0.312601
2063 1 17.4782 15.9111 8.77372 -3.23937 -4.07978 2.49346
2060 2 16.0278 14.1875 8.76842 0.0949826 1.7465 1.00259
2059 1 14.4295 15.765 8.72789 -0.356256 -0.0450867 -4.8526
1163 3 17.7274 15.7822 5.51763 -2.46382 -4.85605 1.36551
2061 2 17.8449 14.0204 7.19631 4.87183 -1.22482 -1.82917
1164 1 19.7094 14.0815 5.22498 -0.796604 2.54198 -4.95298
1167 3 21.281 16.1708 5.14696 0.709955 0.451583 3.91641
2062 3 19.6635 15.984 7.08366 -3.10141 1.13059 -1.1428
2065 1 21.4467 13.9813 6.96146 4.59798 -2.92981 -2.24576
1168 3 23.219 14.2994 5.23494 1.05028 -6.6397 -1.69588
1171 3 24.8708 16.0185 5.33336 6.88984 0.0762792 3.74089
2066 3 22.9635 15.9793 7.05488 3.8886 2.73232 -2.55612
2069 2 24.7498 14.3448 7.1886 2.3149 3.34159 -1.70218
2070 1 26.6988 15.8735 7.00131 -1.97306 -2.93687 -0.638331
2132 3 26.6131 17.6617 8.65244 3.31675 4.63033 -8.84799
1204 3 1.62864 17.824 5.40205 -7.90858 -3.8361 -3.13151
1207 3 3.31627 19.4615 5.0143 -1.91506 -1.02631 -1.02487
1264 3 1.61643 21.3559 5.23978 -2.087 -1.26477 4.42099
2102 3 1.60659 19.6275 6.89228 0.99309 -4.75896 -0.0271048
2165 3 3.46008 21.2848 6.92777 1.04869 -2.73264 -4.55478
2107 3 3.39693 19.6281 8.42219 -2.61139 -2.55247 -3.97061
2161 2 -0.182052 21.4895 6.99291 4.71971 1.28497 -1.70479
2109 2 7.22439 17.8265 6.93846 -0.636607 7.50247 0.93232
1212 3 8.55843 17.9011 4.67564 -6.14421 5.13989 4.67096
2108 2 5.28088 17.9009 8.72628 -3.67634 -0.240679 1.08174
1211 3 7.05866 19.474 5.09395 0.296098 -2.209 -2.38044
1268 2 5.04424 21.1441 5.29684 7.02075 -4.90746 11.0155
2106 3 5.21589 19.2991 6.71906 1.44847 3.50139 -0.142878
2169 2 7.08734 21.1236 6.99496 -1.20525 -1.05355 7.01109
2110 1 8.69638 19.4165 6.86903 1.31195 -4.12762 -6.08923
1272 3 8.76122 21.4382 5.10278 0.0559152 -0.237981 -0.324297
2111 1 7.02334 19.6145 8.71973 0.856477 -1.65525 -0.872881
2168 2 5.2204 21.1506 8.63119 -3.84968 4.28166 -4.41725
1216 3 12.0663 17.8227 5.12496 2.53141 -3.45185 2.12578
1215 3 10.4101 19.7008 4.94844 0.0781578 1.71104 -3.42174
1276 2 12.081 21.2542 5.18419 -1.37162 5.86372 -1.04279
2114 3 12.2021 19.3364 7.15033 2.02978 -1.27257 -0.704312
2173 3 10.5879 21.2406 7.10034 -8.6275 9.80674 -1.24628
1220 1 15.5765 17.8539 5.27766 0.0782758 4.22038 -6.11894
2117 3 14.011 18.0397 7.04643 -0.96029 -3.41293 -6.32885
1219 3 13.8289 19.6379 5.29186 8.76452 -3.09615 -6.19693
1280 3 15.8704 21.2019 5.24886 -2.54344 3.07231 -4.02955
2118 1 16.1459 19.5581 6.83014 -1.12569 2.70878 -0.431147
2177 3 13.8268 21.419 6.87364 2.30522 -1.12091 -1.58339
2181 2 17.6434 21.422 6.99223 10.65 4.95841 -1.00002
2119 3 14.1368 19.8691 8.56578 -0.014612 -4.64642 3.28389
2180 1 15.9302 21.6031 8.6038 4.8043 8.5302 -1.19827
2123 2 17.685 19.6495 8.56568 -2.55247 -3.46736 2.13799
2120 1 16.0921 17.8217 8.67683 -3.77431 -2.71465 -4.60859
1223 2 17.8821 19.813 5.19435 7.69475 -1.5283 4.21245
2121 1 17.7977 17.7924 7.03812 -1.07176 -1.86628 -7.4487
1224 2 19.7603 17.8668 5.15347 -3.37332 2.8063 -2.17806
2125 2 21.4702 18.1092 7.05196 0.347141 -2.35119 -1.14187
1227 3 21.5038 19.5183 4.93521 -1.78355 5.51913 1.71391
1284 1 19.5236 21.4899 5.13877 3.57553 2.78884 -5.33838
2122 1 19.6804 19.8144 7.00556 -0.0501069 1.66924 -2.37586
2185 2 21.3022 21.3397 6.80598 6.15605 -0.682273 -0.0814116
2184 1 19.4179 21.4108 8.78015 0.521901 0.727274 1.17228
1232 3 26.5809 17.7927 5.2472 6.6622 1.05141 3.25667
1228 1 23.1371 17.7953 4.96218 -0.328281 -4.29191 -4.1235
2129 3 24.6192 17.8409 7.07086 2.32998 -2.67858 3.80946
1231 3 24.8991 19.5407 5.1598 -4.41954 3.80995 0.822534
1288 3 23.2028 21.0401 5.26858 1.32068 1.53904 0.0922409
2126 2 23.0049 19.5971 6.97369 1.04679 3.42191 -2.83992
2189 3 24.8607 21.4194 7.16935 3.56976 -0.227775 1.99361
2130 3 26.5876 19.5441 7.15905 -0.326943 -0.918503 -1.74247
2188 3 23.1815 21.5576 8.70793 11.4426 -7.69022 -5.18302
1267 2 3.42822 23.06 5.19251 2.67916 1.38334 -2.0027
1324 1 1.36424 25.1866 5.43079 2.97037 3.14505 4.84828
2162 3 1.74337 23.0409 6.96325 -1.76551 -0.809397 -7.01132
2225 1 3.41234 24.959 7.19012 0.535372 -1.00465 -5.46953
2224 2 1.51068 25.2229 8.64586 -7.73431 0.134063 2.94133
2167 3 3.4617 23.0263 8.583 2.78831 0.90268 1.81283
1271 2 6.83057 23.3532 5.30691 -3.07969 -2.18012 -1.014
1328 1 5.13617 24.9887 5.30335 -4.79143 -0.151067 -1.13865
2166 1 5.20541 23.1177 6.90923 3.8051 -0.345957 0.778262
2229 2 7.1203 24.9127 7.11375 -2.20632 0.41907 -1.71466
2228 2 5.19353 25.2133 8.72331 5.39348 0.772288 1.47904
2171 1 7.03385 23.1376 8.72608 3.4543 0.18394 1.49419
2170 1 8.52259 22.8232 6.92592 1.39154 0.970415 -0.610003
1331 2 7.04066 26.6298 5.23133 7.15592 0.214112 -1.3627
1332 3 8.85837 24.9266 5.3637 1.28911 -3.41014 3.40045
1275 3 10.3385 23.1779 5.44838 -2.13761 -0.871295 5.5311
1336 1 12.2807 25.0801 5.27237 1.17519 -4.00941 -4.00063