ITEM: TIMESTEP
93600
ITEM: NUMBER OF ATOMS
13500
ITEM: BOX BOUNDS pp pp pp
-2.1266706540216518e-01 5.3732667065389329e+01
-2.1266706540216518e-01 5.3732667065389329e+01
-2.1266706540216518e-01 5.3732667065389329e+01
ITEM: ATOMS id type x y z vx vy vz
7 3 3.22263 1.86326 1.72425 -3.34714 -0.470144 -4.15314
64 1 1.47565 3.24903 1.55725 4.97459 0.944231 0.47813
902 2 1.48096 1.55946 3.17021 5.80257 0.713874 -4.99779
965 3 3.34432 3.38856 3.52504 -1.38156 1.16159 0.650942
961 2 -0.204096 3.39317 3.54438 -0.44421 1.65056 -1.64539
3 3 -0.131974 1.57302 1.63032 0.759256 4.23413 -3.76341
5 3 3.54648 -0.200514 -0.0662712 0.632874 4.17213 -0.245656
11 1 6.90077 1.73575 1.50892 -0.238233 0.298061 -0.0279525
68 2 4.98574 3.55665 1.43359 0.442207 10.1036 -6.25923
906 1 4.97909 1.55529 3.38739 4.42585 -2.38639 -1.31554
969 2 7.00827 3.61116 3.30073 0.16419 -2.31456 -1.32548
910 3 8.62182 1.3624 3.18233 5.27886 -1.79085 3.37678
12 1 8.63824 -0.148114 1.63229 0.341283 -8.9139 1.76587
6 2 5.25081 1.45883 -0.0840506 -2.80949 4.54622 0.666524
72 1 8.66891 3.40308 1.45371 -1.97188 2.1851 4.83981
15 2 10.6746 1.45599 1.60461 -0.902962 -3.99742 4.66601
76 1 12.4079 3.27933 1.40139 1.65173 -1.56196 -5.1229
914 1 12.1811 1.58319 3.18635 2.48483 -3.99992 1.64517
973 3 10.7785 3.5897 3.2572 -6.88713 0.683017 2.52736
14 2 12.099 1.26462 -0.0472862 -7.9526 -4.47806 -6.51167
19 1 14.023 1.61052 1.67446 1.04975 3.80919 1.27395
80 3 15.8886 3.40527 1.72837 -0.364598 1.37012 -5.9637
918 3 16.0701 1.74365 3.36589 0.952784 8.70351 2.33059
977 2 14.0091 3.40001 3.35344 0.12901 -0.00566824 2.16532
20 3 16.2005 -0.0979877 1.72152 5.66038 -2.425 1.20444
17 3 14.2686 -0.0862429 -0.000357723 -4.02643 0.315661 -1.04502
81 3 17.5698 3.69857 -0.0898111 0.328992 0.891794 5.56319
18 2 16.0186 1.65115 -0.132088 0.673349 -0.375138 4.94137
77 2 14.1643 3.34116 -0.153113 0.427094 -5.05581 6.13509
981 1 17.8389 3.79068 3.38919 3.74224 -2.12616 1.6219
23 3 17.9762 1.55659 1.62778 -4.52779 2.44598 -2.0574
27 3 21.3116 1.53999 1.57819 0.335273 -0.144646 -1.00056
84 3 19.5532 3.63317 1.58914 0.705594 3.16241 -5.4416
922 2 19.3253 1.99233 3.2818 0.584029 -8.93455 2.79414
985 3 21.2963 3.59863 3.58458 1.10769 4.4357 4.07902
22 3 19.7394 1.77154 -0.140154 -3.6383 3.21034 -6.28849
925 3 21.0371 0.0592271 3.44927 0.481358 -2.673 -0.145252
921 3 17.9364 -0.0774504 3.61281 -1.22149 3.40959 0.117608
31 3 25.0039 1.66937 1.73722 -0.0336853 -1.82903 5.27404
88 2 23.2057 3.44249 1.51921 3.71618 -0.298129 -3.67592
926 1 23.0451 1.5449 3.44366 2.42931 -3.08255 -0.155576
989 1 24.9278 3.43069 3.42322 3.7261 -0.880436 -1.72517
92 3 26.688 3.28243 1.83616 0.55333 2.84696 2.97858
929 1 24.8416 0.205909 3.49337 2.48973 -1.25752 -1.82924
28 2 23.2741 0.04232 1.44352 4.57308 -7.80561 -0.954522
30 3 26.7096 1.73219 -0.0141066 7.28159 6.97129 -1.7029
32 2 26.6701 0.0750661 1.70476 -0.553325 5.40164 -1.28799
89 2 24.9282 3.38802 -0.127974 -3.71425 -5.57214 2.04923
67 2 3.21324 5.14277 1.63144 -3.76097 0.639328 2.77978
124 2 1.76084 6.97603 1.72223 -0.6146 3.35983 -2.45988
962 1 1.56551 5.34471 3.50753 -0.00667787 3.14504 -2.48129
1025 1 3.49226 6.91502 3.53549 5.22227 1.41824 -4.39434
1022 3 1.65439 8.74538 3.51266 1.73419 3.07174 -0.312966
121 1 -0.155219 6.96429 0.0177216 -2.91894 0.0183268 -4.94097
1021 2 -0.0662934 7.04042 3.65991 -7.2834 6.12323 1.79764
62 2 1.67653 5.27801 -0.0803599 2.87717 -2.18118 -1.18186
125 1 3.31009 7.07723 -0.0787101 -1.54427 1.48372 2.57019
63 1 0.0149803 5.23808 1.85925 3.68964 -0.746617 3.63249
71 3 7.1017 5.22609 1.51257 1.47805 5.11318 -0.426155
128 3 5.04876 7.00229 1.78169 0.0373942 -2.60298 -5.71133
966 1 5.09574 4.9704 3.36659 -3.38069 -2.94122 -6.15207
1029 2 7.02468 6.75983 3.4655 0.504336 -2.58447 0.831496
1026 1 5.31953 8.78445 3.52607 1.4201 4.81007 -4.45474
131 3 6.90774 8.77141 1.56313 4.08241 3.0303 3.61621
126 3 4.93767 8.693 -0.0760315 1.12589 3.77676 -4.87309
70 2 8.74755 5.02638 -0.139219 6.23489 1.18434 -5.40465
129 3 6.84628 6.82098 0.0200865 1.88645 1.06842 2.86462
130 3 8.60291 8.74794 -0.0769564 4.66543 1.26065 0.20189
970 1 8.86795 5.1194 3.1961 0.949023 -3.0904 2.5818
132 3 8.79515 7.11573 1.49474 0.353599 0.466933 0.172518
75 2 10.6877 5.11875 1.38248 -2.41844 0.599852 1.50857
136 3 12.1402 6.97238 1.50345 -9.12967 -0.922717 0.733521
974 3 12.3707 5.24699 3.25559 -0.704393 2.00762 0.757762
1033 2 10.4887 6.82081 3.40934 -5.72873 2.7827 2.95137
1034 1 12.3214 8.71024 3.09011 -2.43207 3.24968 1.42643
74 2 12.2617 5.0807 -0.193961 -0.465037 -2.82824 -1.44667
79 1 14.1451 5.25763 1.54742 3.14159 0.787688 2.68686
140 3 15.9858 7.14391 1.44688 -2.61037 -3.43983 -2.5552
978 3 15.8329 5.35661 3.30404 1.6409 -1.62879 5.46779
1037 1 14.113 7.1432 3.05415 -2.28862 -6.21354 -3.45404
1041 2 17.7522 7.10659 3.32118 4.78491 3.74245 -4.7045
139 2 14.1143 8.73742 1.51845 -3.15753 9.29676 -2.11667
83 3 17.7936 5.37822 1.656 4.80094 -1.32893 3.70046
87 1 21.3912 5.24887 1.77216 10.6538 -3.72517 -0.980379
144 1 19.3607 7.15664 1.71261 1.91946 -12.1924 -0.89832
982 2 19.5538 5.35408 3.42612 -2.67951 -3.61178 -4.93301
1045 1 21.2618 7.04862 3.41012 -0.667403 -3.88233 -3.79177
147 2 21.301 8.57559 1.68067 4.58775 3.25943 -11.9624
82 2 19.5698 5.60772 0.0913403 -3.3681 0.950509 -4.82913
91 1 24.9684 5.08557 1.58995 -2.28329 -3.83819 -1.323
148 1 23.407 6.98778 1.7562 -4.00274 11.1506 -0.453847
986 2 23.0657 5.17922 3.2895 -0.0193411 -7.37428 -5.29619
1049 2 24.9852 6.8597 3.39761 3.36717 1.61242 -1.65855
152 3 26.5633 7.15346 1.55851 1.29243 2.94585 -1.58341
990 2 26.584 5.05903 3.34979 4.68337 5.85548 3.60706
86 1 23.4642 5.30081 -0.0959607 -0.103337 3.07682 -1.61206
1050 1 26.4996 8.7368 3.45318 0.262719 -3.20958 -1.15002
1046 1 22.9858 8.7771 3.40981 -1.32281 -0.0754296 -3.31049
123 3 -0.0263594 8.7843 1.68938 0.038014 2.18273 2.3235
127 2 3.44896 8.96791 1.75266 3.75847 -0.599244 -4.02681
184 3 1.6643 10.5952 1.66186 -0.0117171 6.7535 3.07089
187 2 3.32352 12.489 1.65956 -0.456863 -3.91802 7.79731
1082 1 1.29565 12.4041 3.64537 -1.68577 -2.32088 2.51005
1085 3 3.3406 10.7483 3.56708 2.18914 -4.14901 7.44842
183 2 -0.200374 12.3848 1.94159 0.199834 3.17073 0.493643
182 3 1.51377 12.4544 0.0344454 -0.055086 -0.748562 -1.17559
188 3 5.30229 10.5692 1.7822 -3.95672 0.381116 3.78253
191 1 7.00932 12.4777 1.69902 -1.75741 1.42797 -3.07643
1086 1 5.2978 12.2779 3.35927 -1.42162 -3.32325 0.573128
1089 2 7.17466 10.9084 3.45845 9.67735 3.29041 -1.70513
186 3 5.1731 12.2372 -0.0979585 -0.41611 0.293275 0.559465
192 3 8.6636 10.4878 1.45325 2.95167 6.58469 -0.63087
189 1 6.97115 10.6475 -0.153645 2.9627 3.35465 -2.76092
1030 3 8.83983 8.8112 3.3361 0.573838 -4.17226 1.56168
1090 3 8.83455 12.3906 3.30118 -2.47435 -1.04246 -3.92789
135 3 10.5402 8.89731 1.33367 -10.3876 -2.37351 -2.98991
195 1 10.6169 12.5203 1.3973 1.10778 -1.58754 5.29537
196 3 12.1572 10.7293 1.64243 2.74208 -4.05842 -2.58564
1093 3 10.478 10.4623 3.20983 -0.766862 -2.61133 3.56091
1094 3 12.2587 12.5471 3.2981 0.0791746 -0.102502 -2.64367
138 1 15.8726 8.81142 -0.131997 -5.1043 3.78773 -0.624051
1038 1 15.8559 8.87269 3.30558 -0.707229 -4.52178 3.64019
199 2 14.0269 12.2334 1.55331 -0.677072 -0.38442 -4.28579
200 3 15.9006 10.6289 1.6575 -0.715491 -6.13445 2.40313
1097 1 13.9799 10.7683 3.29739 -6.88624 -1.85565 0.787137
1098 3 15.8502 12.5585 3.4135 2.489 -2.52198 2.19757
203 3 17.668 12.4666 1.61235 -4.49883 -2.01473 6.90855
1101 1 17.7752 10.646 3.21182 2.40018 -8.33464 -2.6409
143 2 17.7967 8.8843 1.63146 4.03946 -6.33523 -4.6518
201 3 17.9301 10.6012 -0.15383 2.99028 -2.17997 -2.79959
1042 1 19.5426 8.85766 3.44549 -0.672925 -1.37599 4.25338
204 2 19.6475 10.4202 1.66493 -6.35369 -5.07469 5.63087
207 1 21.1526 12.2729 1.78748 4.97437 -1.71833 2.43351
1102 1 19.3893 12.4104 3.50325 -4.5335 1.92064 -0.0263634
1105 2 21.1473 10.7469 3.4538 3.55635 -1.19234 7.31245
205 3 21.1829 10.5013 -0.131573 1.79123 -4.92094 -2.97731
202 2 19.5737 12.5553 -0.0122042 -0.946099 5.40551 -0.305072
146 1 22.8636 8.91643 -0.15863 3.73498 3.83503 -0.521739
151 2 24.6529 8.91382 1.74038 -10.5313 3.94038 2.66574
208 1 23.1477 10.6984 1.69705 -3.54619 5.70551 0.545544
211 3 24.8548 12.4797 1.66571 5.37098 -4.9583 -0.194732
1106 2 22.8965 12.5694 3.50568 -2.95249 -1.16231 0.027191
1109 3 24.5911 10.5385 3.44594 1.50053 0.866351 2.99901
206 2 22.6203 12.6075 0.0529262 3.02812 -3.52678 -6.13696
150 3 26.1902 8.98683 -0.0289127 1.65162 -0.590348 -3.496
212 3 26.5368 10.6139 1.75383 -3.53779 0.799864 1.25388
244 1 1.71326 14.3126 1.65262 8.08765 -3.32247 6.1707
247 1 3.44663 16.0925 1.55316 4.79289 -2.18502 3.22633
1142 2 1.56016 16.072 3.38398 -1.19681 2.1934 1.65506
1145 2 3.33398 14.1298 3.50622 -6.94798 0.0391006 -2.29816
242 2 1.55104 15.997 -0.186027 -3.34479 -0.157161 -3.89335
1141 3 -0.120074 14.2276 3.23399 2.4225 -7.46611 0.782629
248 2 5.13521 14.232 1.69909 3.12864 -3.86104 -2.10956
251 1 7.01082 16.0669 1.4327 1.6798 -2.3659 1.34694
1146 2 5.3413 15.9028 3.22272 1.50013 5.39105 0.734414
1149 2 7.03517 14.1198 3.48636 2.9904 3.54741 4.48222
308 2 5.10446 17.6368 1.26864 7.50657 3.67913 -0.159305
249 3 6.91259 14.2016 -0.125162 4.323 8.47037 2.14478
1150 1 8.80101 15.933 3.29942 -2.08499 -1.36839 -5.98528
252 2 8.85452 14.0504 1.50375 -1.8912 5.25828 -2.40566
255 2 10.4245 15.8119 1.25284 0.136602 -5.31193 -3.24734
256 1 12.2201 14.1098 1.38719 -1.62791 -2.93403 -1.69913
1153 3 10.6467 14.2094 3.63523 -1.50113 2.77848 -0.238697
1154 2 12.28 15.912 3.46154 -1.68001 5.44635 -0.809156
316 1 12.4267 17.7115 1.82206 -0.407299 -7.52231 1.51511
259 1 14.0867 15.932 1.2757 0.671474 1.12577 -0.541259
260 1 16.0032 14.2316 1.55039 1.03018 2.38527 3.16632
1157 2 13.9687 14.4837 3.34427 1.51052 2.77438 4.47662
1158 2 15.8812 16.0779 3.11407 1.98747 -2.73779 -0.125163
1161 3 17.6147 14.2364 3.3823 7.47367 -2.87278 -3.80362
257 1 14.0893 14.2274 -0.206808 -0.833699 0.921232 -0.304162
263 2 17.8336 16.0672 1.53714 4.7347 1.63718 -1.57001
264 3 19.3664 14.2395 1.57552 -1.74069 0.542468 1.10889
267 2 21.2572 15.8693 1.61152 2.69833 -0.637686 -0.947557
1162 1 19.2232 16.1009 3.28806 3.42202 -3.88965 0.579985
1165 2 20.9915 14.1447 3.4522 6.40987 1.07549 -4.71606
262 3 19.5407 16.1024 -0.0898142 -2.82908 5.67375 2.81369
268 2 23.0391 14.3001 1.59898 0.82707 5.82015 -7.16349
271 1 24.6296 15.9265 1.67967 -0.940106 3.43325 -4.21366
1166 3 22.9392 16.0165 3.23981 8.68072 -5.8476 -1.45625
1169 2 25.1361 14.2146 3.49093 -3.11814 -2.82181 -0.0893088
269 1 24.8138 14.0894 -0.0875973 -1.32983 2.82459 -0.180848
270 1 26.4638 15.8472 0.186046 3.21701 0.00507212 -2.87712
1229 3 24.8395 17.5453 3.34953 -2.61713 -0.562117 -9.4511
266 2 23.0759 16.2214 -0.120831 5.11455 -1.77066 0.354993
272 2 26.7034 13.9111 1.78636 -2.51215 -0.545972 -2.77418
1201 2 -0.16741 18.0078 3.6384 -2.11676 -2.20618 -3.47401
304 3 1.34399 17.8133 1.61385 -1.60173 -0.913297 -2.98115
1205 2 3.24824 17.9181 3.55093 -7.23425 -3.19535 3.51253
307 3 3.25178 19.4411 1.41333 -4.06267 -7.91448 -0.327247
364 3 1.53744 21.5018 1.56224 -7.31027 -1.88039 6.88123
1202 3 1.34389 19.7147 3.25375 6.54424 -7.30386 0.0580194
1265 3 3.34842 21.3167 3.20154 0.988337 0.143356 1.0391
1209 2 7.01774 17.8307 3.28255 -4.527 -5.8119 12.2358
311 1 6.82721 19.759 1.65905 -0.982313 0.0158886 0.048787
368 2 5.03165 21.4384 1.25871 3.6938 -1.68623 -0.044152
1206 3 5.07513 19.2648 3.42412 1.53473 0.813579 2.22278
1269 1 6.77241 21.5746 3.37366 1.34485 1.46403 -5.20067
310 2 8.70756 19.7209 0.0259928 3.77366 4.98548 5.62788
309 2 6.9632 18.0979 -0.169286 2.82658 6.96677 5.22
372 3 8.77055 21.6189 1.3643 -1.96211 -0.508475 3.60414
1210 2 8.85985 19.6942 3.14101 6.12806 1.40528 -4.02993
1213 3 10.4437 17.8854 3.38558 -1.31742 3.64744 0.434753
312 1 9.0498 17.8834 1.43826 3.08823 -4.39414 6.07047
315 1 10.7666 19.9504 1.5921 -6.71251 4.76135 1.18945
376 2 12.3492 21.7464 1.43609 -3.37532 -4.69808 3.84324
1214 3 12.3216 19.8304 3.47676 -2.11659 -0.280392 1.78248
1273 1 10.4151 21.4847 3.34856 -1.19454 -4.71498 -4.66579
314 2 12.2821 19.6938 0.0258048 -4.36631 5.08551 4.899
313 1 10.7682 17.7892 -0.140038 3.54257 0.0541087 2.649
1217 1 14.1537 17.8946 3.38757 -2.67598 -1.6188 -0.517448
1221 1 17.5578 17.8215 3.22738 -0.331252 -4.1483 0.59025
320 1 15.8701 18.0622 1.48495 -3.51753 -4.48328 -1.41194
319 3 14.0973 19.6031 1.53059 0.251006 -1.95073 -0.983177
380 2 15.8171 21.3839 1.63065 -2.86304 -3.72145 -4.82384
1218 2 15.7983 19.509 3.50142 0.972016 -1.11661 -1.04496
1277 3 14.0602 21.4356 3.50892 4.31468 -1.56687 -2.94734
1281 1 17.4816 21.2758 3.34444 3.61282 -2.21212 5.69918
381 3 17.4576 21.5234 -0.0464202 -0.438081 7.86715 0.193673
323 1 17.5715 19.5303 1.41808 0.391173 4.93542 -3.54034
377 1 14.1339 21.568 -0.167552 2.85492 2.76273 2.02496
1225 3 21.4033 17.8156 3.32124 3.88399 7.32536 3.66115
324 1 19.4759 17.9829 1.64496 -1.16565 4.40406 2.61764
327 3 21.2908 19.6101 1.56023 0.786381 -2.39624 -0.512115
384 2 19.6173 21.4718 1.66298 0.580415 -2.47234 3.59782
1222 2 19.4441 19.68 3.33163 0.146581 9.8009 2.71706
1285 3 21.4629 21.1853 3.27356 1.98487 0.915256 -4.99748
325 3 21.1844 17.7959 -0.217135 -3.22938 -3.93713 -4.59828
385 3 21.253 21.6318 -0.0349464 10.7516 10.8535 -1.54391
322 2 19.365 19.7145 -0.038465 -0.857061 6.41422 7.10571
328 3 22.9705 17.8086 1.45624 -2.30735 2.47693 -0.626032
329 3 24.9228 17.9254 -0.03209 -2.29475 -8.54763 1.18113
331 3 24.8566 19.5416 1.73853 -0.0784546 1.59302 -5.90314
388 2 23.2534 21.6831 1.70544 3.28469 -6.92054 0.332822
1226 3 23.1697 19.4709 3.25531 -1.69487 -3.50659 0.38643
1289 3 24.8624 21.4536 3.31626 3.95874 -0.273162 -0.744717
326 3 22.9705 19.7694 0.0231276 -4.08878 2.55244 -9.91448
389 1 25.006 21.381 -0.0412535 3.71158 0.852136 0.135256
392 2 26.6947 21.4886 1.91363 -4.50075 -4.03871 2.22568
427 3 2.96988 26.6972 1.36369 0.704836 1.81693 -0.37648
367 3 3.42734 23.2344 1.52801 -1.908 -3.99688 2.18669
424 3 1.33429 24.9119 1.7799 2.38358 7.09301 -2.11906
1262 3 1.55882 23.1012 3.43997 6.00634 6.50037 -7.57638
1325 1 3.119 25.0693 3.30833 -2.59234 2.93854 -2.42729
362 3 1.29569 23.1147 -0.14939 2.34565 -1.31146 2.07547
423 3 -0.113605 26.7025 1.83813 -5.62773 -4.2705 -5.57877
371 3 6.98662 23.1557 1.56497 -2.33305 -5.61377 -3.90284
428 1 4.84332 25.0684 1.58338 5.79281 -5.19842 3.18613
1266 1 5.16943 23.0069 3.34347 2.05695 -1.98644 3.96456
1329 3 6.95901 25.0278 3.11141 -3.77872 -3.62433 -1.79179
431 2 6.98357 26.5922 1.35669 -0.728064 0.579506 5.05559
1326 2 4.9933 26.698 2.93301 0.426129 2.48042 5.59254
432 1 8.89037 25.1296 1.40944 3.61589 -4.14201 -2.37198
1270 2 8.77474 23.1126 3.37018 -2.2462 -4.27225 6.29448
375 3 10.3613 23.2122 1.40739 4.43811 6.56785 -2.85687
436 2 12.3553 24.8902 1.45264 1.33176 -1.92322 1.85306
1274 2 12.1336 23.2725 3.30254 -4.12678 -1.00577 6.42676
1333 1 10.5728 25.0726 3.14779 -0.519948 7.42546 1.81291
379 3 14.2993 23.2858 1.79107 4.33124 -0.200408 0.934651
440 3 15.6244 25.1135 1.43003 -8.48289 -2.91972 1.7944
1278 2 16.0583 23.3934 3.33857 -0.635394 0.781401 -1.70807
1337 3 13.9939 25.2463 3.37728 1.88982 3.29643 6.31211
1341 2 17.6265 24.9606 3.35562 2.61095 1.12501 0.975716
1338 3 15.9056 26.5836 3.26292 -6.1441 5.66206 -2.28525
378 3 15.9203 23.2216 -0.113546 -1.943 -3.46433 3.719
383 1 17.8782 22.879 1.80913 8.62921 -0.812737 -2.19828
387 3 21.2638 23.0656 1.69034 1.00833 -7.48089 -2.02306
444 3 19.552 24.8265 1.70115 -8.0247 -0.765046 -0.798279
1282 2 19.3538 23.0335 3.52911 -1.73435 2.03722 2.4873
1345 2 21.0252 24.9999 3.28776 -3.31827 0.256746 2.28357
391 1 25.1256 23.4824 1.47717 -2.2442 7.1196 1.46732
448 1 22.9293 24.8947 1.4405 3.73325 -1.06869 1.40012
1286 1 23.0467 23.3846 3.20223 4.52363 -9.86035 -2.35244
1349 2 24.9491 25.2139 3.29578 4.90462 -1.55088 4.33623
386 2 23.021 23.185 -0.0878773 -2.00172 -2.55809 -4.56723
452 2 26.6995 25.0274 1.46413 3.6944 -6.57441 -1.50065
1290 3 26.4727 23.3803 3.69322 0.597389 3.2628 -9.71407
1346 2 23.1381 26.6561 3.20561 -2.23501 1.53756 -3.55525
449 2 24.9705 25.0402 -0.204306 6.877 5.90108 1.95381
907 1 3.44179 1.28779 5.07898 -0.107557 -0.530523 -1.37527
964 3 1.53216 3.3468 5.14942 -1.72931 -2.1832 -1.86098
1802 3 1.62785 1.4304 6.63708 2.65852 -0.77666 4.30125
1865 2 3.34491 3.1358 7.11206 5.84136 4.92278 -8.38951
908 2 4.97879 -0.16555 4.92227 -3.96234 5.48971 1.31759
911 1 6.77894 1.24462 5.248 -6.48226 3.88743 -0.312773
968 2 5.06627 3.33854 5.31412 4.29601 -2.92805 -2.30815
1806 2 5.10551 1.39942 6.89951 10.3826 -7.54032 2.15978
1869 1 7.01393 3.23514 6.88725 2.29096 3.90614 -7.02794
972 3 8.6248 3.1789 4.92346 7.3082 9.97894 -1.98213
1810 2 8.49621 1.21534 6.82699 0.191578 -2.87677 -3.30088
1868 1 5.52653 3.16727 8.59024 0.737961 4.40492 -4.52439
1809 1 6.65781 -0.20408 7.04049 5.46031 3.79401 -2.16481
916 3 12.4177 0.0113882 5.13933 3.38106 6.21835 -3.97569
915 3 10.6864 1.56195 5.11784 -1.76087 -5.40016 6.09424
976 1 12.4373 3.24088 5.0768 -2.82526 6.91651 3.96359
1814 2 12.2357 1.77548 6.99456 0.284146 -3.05771 2.19156
1873 3 9.90675 3.34274 6.84966 1.17189 -5.97643 0.752166
1876 2 12.0102 3.37908 8.59254 8.11986 3.85331 -4.03172
1815 2 10.3698 1.60242 8.66992 -3.57068 -2.21127 1.65582
1821 2 17.7403 0.0479256 7.11375 3.90628 9.14331 2.35157
1817 3 14.1376 -0.0769169 6.91544 -0.137083 0.741774 -5.0379
919 3 14.2813 1.63023 5.05579 -3.93002 -0.88316 8.32427
980 3 15.7538 3.69753 5.34693 -0.32852 -1.54077 0.652967
1818 3 15.8839 1.63724 6.75241 1.12025 -4.6031 6.24833
1877 3 13.9195 3.34682 6.86981 -2.04168 2.97438 1.91887
1880 2 15.7939 3.49185 8.78042 2.36306 -3.16144 1.07051
1823 3 17.4334 1.82414 8.74855 -3.09664 -2.15749 -1.08438
923 3 17.8513 1.84895 5.2486 2.7669 -2.81505 0.753554
1881 2 17.7655 3.53854 6.98856 -6.73963 4.0368 -2.41856
927 2 21.1875 1.60584 5.42991 2.0864 4.23044 3.981
984 1 19.4487 3.6492 5.27869 -3.47701 5.1091 7.20117
1822 3 19.6127 1.60273 7.07521 4.21598 -2.73708 2.184
1885 2 21.4781 3.37284 7.07682 -1.95047 -3.94607 -2.05291
1825 1 21.3363 0.0155339 7.32034 -2.79081 0.314842 2.54732
1884 1 19.272 3.59539 8.56126 1.88011 0.00167826 -1.86556
932 2 26.6767 -0.139642 5.18141 4.87751 3.48279 5.73596
928 3 22.8083 0.124712 5.2357 3.23646 0.946054 -3.77434
931 2 24.7626 1.65489 5.21227 1.20443 -5.1314 -3.57071
988 1 22.9085 3.41527 5.12789 -0.486988 -1.38517 -3.1576
1826 1 23.1155 1.72074 6.90249 -0.432924 -1.44616 -2.46594
1889 2 24.7308 3.67026 7.04776 1.20297 3.12019 8.36114
1829 1 25.0588 0.0872046 6.87709 -9.79445 0.972167 -1.42681
1892 2 26.4644 3.70498 8.67025 2.39131 3.28292 0.00413383
992 1 26.7089 3.53718 5.40448 -0.222415 4.15793 1.71725
1832 2 26.595 -0.175543 8.59317 0.318735 -5.03392 1.03934
1828 2 23.0764 -0.0246132 8.67463 -2.66671 -0.798041 -2.31601
1921 2 -0.0936762 6.84818 6.95788 0.455106 -2.68705 1.46998
967 2 3.37813 5.01977 5.32622 -5.32159 -6.39813 -2.64955
1024 2 1.78481 6.7677 5.44023 5.63979 3.74079 3.38714
1862 1 1.70271 5.01874 7.20104 -1.62159 -8.24935 3.69459
1925 1 3.40472 6.7739 7.02382 -2.14086 0.444569 -2.56977
1027 2 3.43496 8.67427 5.03323 5.39517 3.68966 0.354577
1922 1 1.80063 8.71862 7.22783 2.42298 1.43258 3.34391
1023 1 0.0377478 8.53214 5.32495 4.51316 -3.73464 -1.46577
1927 2 3.73794 8.57888 8.50074 3.0915 -3.8913 -7.53021
971 1 6.8934 5.13359 5.24629 -3.05297 -1.96706 -2.9671
1028 2 5.41859 6.83327 5.20476 -1.62088 1.36002 -10.5448
1866 1 5.08285 5.25639 6.9327 -3.28117 0.249397 6.78381
1929 2 6.91257 7.08591 6.98132 -3.65195 4.68411 -1.18248
1870 1 8.72205 5.35412 6.83438 2.60151 -5.74819 -0.186516
1928 1 5.38039 7.17994 8.60564 0.775622 2.57709 5.76001
1871 2 6.9273 5.016 8.74803 -5.76189 -0.831195 2.81473
1032 3 8.77165 7.2956 5.03352 -2.02322 1.5438 -8.26099
975 2 10.4005 4.88081 5.1582 3.50894 -3.98686 -0.159168
1036 3 12.2619 6.8423 4.91893 4.08147 0.474984 7.77115
1874 1 11.9478 5.18429 6.76414 0.562211 3.14748 0.877433
1933 1 10.6249 7.13504 7.11378 0.570964 3.88992 2.27931
1875 1 10.3736 5.24058 8.76506 -0.267002 5.69993 5.57346
1934 1 12.0645 8.76731 6.81526 -2.23057 -3.63864 -0.312116
979 2 14.0682 5.27355 5.04199 0.181408 2.65081 -0.991711
1040 3 15.8336 6.88456 5.22919 -6.42766 -5.51483 -3.22106
1878 1 15.8901 5.25801 6.89363 -5.50177 4.07727 -1.72946
1937 2 14.074 6.98468 6.99018 -4.95405 -1.58878 -0.46516
1941 2 17.5544 7.24111 7.18531 -1.88216 -0.799308 6.0911
1879 1 13.9014 5.13862 8.52298 0.345177 -2.15067 -4.3555
1940 1 15.6942 7.02066 8.62617 -0.131374 -2.93815 4.43925
1938 1 15.6682 8.73517 6.74653 -4.08598 2.14486 -5.41827
1043 1 17.4343 8.53889 5.25735 -7.69919 -1.13178 -0.441188
983 3 17.7484 5.45354 5.15135 -1.69276 -4.62379 -2.30767
987 2 21.2545 5.3199 5.17637 4.26124 0.2267 2.5956
1044 1 19.4286 7.16626 5.37473 1.80623 -4.06069 -6.13335
1882 1 19.4707 5.40571 7.0783 1.90733 2.83389 4.02399
1945 1 21.3514 7.11482 6.86239 -0.834391 0.287475 -1.61578
1887 2 21.2269 5.08526 8.577 -0.860878 0.139219 -2.56525
1890 1 26.7034 5.25346 6.74598 -2.2597 -1.99392 2.06031
991 1 24.6843 5.22391 5.02566 -2.28863 2.1489 2.00631
1048 3 23.0399 7.13634 5.05054 3.51499 2.59871 -6.66821
1886 1 23.0607 5.37718 6.68297 -2.10184 1.25995 -0.214607
1949 2 24.9269 7.02405 6.88871 9.41372 -7.992 -3.11558
1052 1 26.5303 7.03708 5.28542 -1.26278 -2.58292 -3.45131
1952 3 26.5928 7.12732 8.73104 3.94092 0.0462511 5.36994
1950 1 26.6635 8.74306 7.18461 1.99175 6.2062 -0.840118
1946 3 23.0153 8.68142 7.04781 -1.69694 1.71458 -0.814259
1948 3 22.9823 7.16421 8.70765 -7.27411 4.39538 -1.72483
1083 3 -0.1894 12.525 5.32607 3.41933 -0.729009 3.77881
1981 2 -0.013439 10.3559 6.73808 7.43013 -5.21651 6.43281
1923 2 -0.138077 8.96491 8.74351 -0.38129 6.0556 1.68936
1084 2 1.63693 10.6743 5.12544 -0.904454 3.6096 -10.8101
1087 2 3.21088 12.3152 5.29124 0.704178 -0.0570938 0.888702
1982 1 1.77446 12.3689 7.1478 4.11795 -2.52388 -5.75455
1985 1 3.21747 10.6197 7.0228 1.9611 0.744425 -0.648827
1031 1 6.92421 8.89652 5.07677 2.22078 1.67067 6.01545
1930 2 8.66404 8.96223 7.02885 -0.515526 1.44006 0.453607
1926 1 5.18208 8.94923 6.92054 1.80144 -0.821305 3.18174
1088 2 5.01455 10.518 5.12858 -0.0743276 -1.25746 1.01867
1091 1 6.95826 12.4518 5.24929 -2.60625 -0.069464 -2.77502
1986 3 5.03582 12.4175 7.00595 -0.687674 0.960347 7.15953
1989 3 6.78834 10.672 6.74535 5.28245 6.34418 -0.474576
1092 3 8.66837 10.3828 5.21415 -0.0727023 1.9484 2.54913
1931 1 6.85759 9.01857 8.72847 1.85658 -5.31632 3.51122
1990 1 8.60042 12.3027 7.06086 2.81117 -5.09399 7.8937
1988 2 5.0512 10.6108 8.56301 3.75024 -1.37929 -2.40383
1035 1 10.6927 8.82185 5.07556 0.252068 3.17289 -1.84879
1935 1 10.4709 8.95059 8.74446 4.3157 4.71332 0.479616
1095 2 10.5001 12.3568 5.25209 2.84903 7.3221 -3.80077
1096 2 12.3636 10.6001 5.16424 -1.67497 4.22128 -2.29936
1993 3 10.3717 10.5179 6.94916 0.987464 -3.60797 2.41002
1994 3 12.0174 12.4363 6.91531 -0.393759 -2.28203 -0.557158
1996 2 12.1445 10.7269 8.57288 1.63755 1.5229 -2.1507
1039 3 13.8723 8.81698 5.12383 -0.58418 -0.864454 -2.72184
1099 1 14.138 12.6575 5.02294 0.562455 3.88517 -5.83786
1100 1 15.7173 10.648 5.01404 -1.75969 -1.63196 2.62639
1997 1 14.0749 10.6801 6.86647 -1.43652 5.54941 -0.472392
1998 2 15.8714 12.3888 7.0167 -2.17115 -1.67515 -5.41258
1103 1 17.6098 12.2357 5.04157 0.306179 -7.36915 -6.21897
2001 2 17.4387 10.5955 6.68013 -8.75915 0.934145 2.2677
2000 3 15.7939 10.457 8.52862 1.95613 1.26132 2.07465
1943 1 17.4597 8.81649 8.5813 -0.392298 0.551932 3.89304
2003 1 17.7102 12.1584 8.40733 2.45407 2.9401 -1.72832
1047 2 21.1791 8.84952 5.34942 6.29499 -8.99244 2.6958
1942 1 19.282 8.88892 7.01824 1.0119 0.259462 -4.40278
1104 2 19.3274 10.6315 5.20091 0.604477 -1.90294 -9.81762
1107 1 21.0747 12.272 5.0424 -2.68559 1.05469 3.20817
2002 1 19.4448 12.2771 6.88234 -0.101572 -3.23108 -1.1193
2005 1 21.396 10.7406 7.00767 -2.52429 1.39836 6.3734
2007 3 21.3602 12.4991 8.65118 -4.36897 -6.26485 4.94421
1947 2 21.157 8.96205 8.68327 4.73161 0.750173 5.44641
2004 2 19.4809 10.5193 8.59836 1.6093 -7.42338 0.0993249
1051 2 24.8479 8.87316 5.11192 -3.45453 0.614297 -1.94213
1108 2 22.9572 10.7477 5.41055 -2.00293 -6.74531 -2.37206
1111 3 24.8828 12.385 5.13813 0.036951 0.860509 1.74488
2006 2 23.0798 12.4138 6.99282 5.01685 -1.77626 -2.85543
2009 3 24.8717 10.6485 6.97628 -3.94051 2.42409 -2.15207
1112 3 26.5899 10.6776 5.13715 -3.07583 1.61605 6.11542
2010 2 26.7069 12.6245 6.7989 2.81257 1.18278 -0.186793
2011 3 25.0234 12.4879 8.5706 -3.81358 -0.483497 -4.1756
1951 3 24.7581 8.93373 8.72504 4.06833 0.816319 -0.823612
2008 1 23.0486 10.7411 8.73966 -3.70157 4.57544 -5.84481
1144 1 1.59691 14.181 5.1376 -1.71536 -0.404808 2.56381
1147 1 3.60717 16.0104 5.04457 1.33135 -5.07405 3.55906
2042 2 1.46038 15.8969 6.8148 5.45035 5.55185 4.80542
2045 2 3.32697 14.2741 6.84723 1.78268 -1.98576 -4.37532
2041 2 -0.0335034 14.3378 6.8444 -0.382546 3.6761 -1.20022
2047 1 3.15673 16.0483 8.69191 2.54221 0.746632 -3.39222
2105 3 3.2275 17.7414 6.91575 5.43083 -11.4333 0.258578
1148 1 5.06293 14.0511 5.04923 3.83912 1.00301 3.29565
1151 3 6.88164 15.9726 5.14567 -4.67893 2.79397 -2.63066
2046 1 5.1217 15.7034 6.87838 -2.12821 -1.02994 -1.62983
2049 2 6.87648 14.2603 7.00613 -8.92833 2.69833 4.70474
2051 3 6.82027 16.214 8.70566 0.789547 3.42807 2.22387
1208 2 5.18871 17.654 5.43981 -3.05143 4.68566 -5.56055
1152 1 8.6358 14.1212 5.34812 -5.44097 -5.30533 5.71194
2050 2 8.75914 16.1258 7.03429 -5.94069 0.103614 -4.66165
1155 1 10.3004 16.3451 5.35029 4.10815 2.1964 5.28784
1156 1 12.4664 14.1269 5.51306 -1.73546 1.06576 4.46604
2053 2 10.2471 14.3955 7.0526 -2.18892 2.27691 2.05564
2054 3 12.3674 16.0079 6.9034 2.33142 -5.52158 4.43616
2056 2 12.1037 13.8821 8.73181 -3.04892 3.85106 0.209811
1159 1 14.212 15.8983 5.23059 2.73874 3.95604 -0.27596
1160 3 16.0837 14.3699 5.39177 1.58816 -0.822044 0.966084
2057 2 14.2726 14.2136 7.00161 -3.62665 -6.79423 -0.276752
2058 1 16.1169 15.9686 6.99852 -4.05364 0.0151309 -2.03275
2061 2 17.6702 14.0304 7.0926 3.53235 3.1978 -8.74768
2117 2 14.1122 17.5772 7.14214 2.37264 1.13676 1.98292
2063 2 17.6157 15.819 8.71286 10.1722 -0.305086 -3.11484
1163 2 17.7761 16.1946 5.21283 1.31247 1.87873 2.15611
1164 2 19.3553 14.32 5.16286 -3.8115 5.31775 1.7749
1167 1 21.2763 15.8095 5.00079 6.93042 3.87633 -1.3618
2062 1 19.3568 16.0837 6.7495 6.59759 -1.49668 -2.16163
2065 2 21.3833 14.1485 6.838 -2.61922 -0.364213 1.71787
2064 1 19.6253 14.3334 8.39654 3.59539 -5.55228 1.85956
2125 2 21.2627 17.5986 7.06014 1.72482 -5.2665 3.41314
2132 3 26.5869 17.7436 8.69998 3.23333 8.1538 4.93745
1168 3 23.289 14.4013 5.14808 -3.12612 -0.455687 -5.62202
1171 1 25.0686 16.148 5.07039 -8.91342 2.41115 -2.70535
2066 3 22.9092 16.0646 6.9702 0.204869 -0.333638 -2.06896
2069 3 24.6692 14.2114 6.79389 0.39944 -2.94203 -0.790159
1228 2 23.0954 17.7694 5.11966 2.49535 2.83815 -5.73464
2071 2 24.8561 15.9743 8.63524 0.147316 -3.82896 -0.566002
2068 3 23.1204 14.1292 8.73708 2.49435 -1.99681 -2.47759
2128 1 23.0422 17.5666 8.73276 1.17711 -1.17016 -3.00311
1204 1 1.49412 17.8866 5.06301 -6.67808 4.52551 -0.596543
1207 3 3.28471 19.7282 5.10143 -4.74247 -3.50018 -5.26047
1264 1 1.2405 21.6411 5.10652 -4.36596 5.84283 -2.72678
2102 3 1.55034 19.4829 6.99938 7.62112 1.08964 -5.88616
2165 3 3.26306 21.3974 6.74086 -2.08427 -11.9166 -1.21839
2104 1 1.44005 17.8667 8.74139 -1.28915 -1.43058 1.461
2107 3 3.52086 19.6173 8.50869 -0.323282 -3.94294 -9.367
2164 3 1.46884 21.4521 8.73137 0.624927 -3.91948 1.86272
2109 1 6.88474 17.7732 6.75696 -0.804105 -2.87959 0.448417
1212 2 8.70389 17.8685 5.03037 0.329012 -2.13164 -9.32706
1211 2 7.09686 19.5692 5.04457 5.77332 1.99745 1.85236
1268 3 5.26825 21.4527 5.29586 1.38599 -3.20346 -4.30213
2106 3 5.34715 19.6802 6.74972 0.456218 -6.61001 2.66079
2169 2 7.22476 21.4495 7.15787 3.7221 2.56031 -1.46681
1272 1 8.76132 21.2717 5.20567 -0.660917 10.8457 -4.72166
2108 2 5.18593 17.834 8.5764 2.0982 -1.61775 0.89644
2168 3 5.19287 21.375 8.6915 -1.94675 0.0804885 1.78139
2110 3 8.76781 19.5403 6.92226 -1.19613 -2.88303 4.6518
1216 3 12.5968 17.9412 5.19102 0.997829 4.49237 0.816708
2113 2 10.634 17.923 7.08393 -0.711952 -2.22246 0.967701
1215 1 10.5518 19.4793 5.08983 -3.14492 0.223081 -0.530134
1276 3 12.1653 21.5399 5.14722 -0.976083 0.667824 -2.73715
2114 3 12.2787 19.7593 6.93177 10.5556 -2.34862 7.01431
2173 2 10.4114 21.7758 6.84998 -4.44472 5.12135 2.33005
2176 3 12.378 21.4818 8.66158 -1.51977 -0.861071 1.38897
2115 1 10.4416 19.8206 8.68569 3.18273 0.165591 2.49309
1220 1 15.9052 17.9149 5.36186 1.37564 -0.582159 -3.52935
2120 1 16.0942 17.8714 8.58837 -2.37427 -0.877215 1.6026
1219 3 14.0149 19.7465 5.37032 2.87171 0.0769338 -5.23388
1280 1 15.9273 21.329 5.41811 5.2099 4.40762 -2.41184
2118 2 15.9348 19.6711 6.85686 1.18063 6.4877 -7.10095
2177 2 14.4159 21.6644 7.23425 4.44105 -9.75598 -1.67871
2119 2 13.9878 19.5483 8.7663 -2.77605 2.51875 1.85258
1223 1 17.57 19.5498 4.87332 -3.06347 3.37857 -3.85826
2181 2 17.6448 21.2196 7.03332 -3.72169 -9.19358 1.73437
2123 1 17.6137 19.6734 8.65963 -1.10819 6.38465 -3.57315
2121 2 17.9318 18.0536 6.89335 -2.98448 -0.882442 -6.00052
1224 2 19.3153 17.8668 4.96749 -4.72831 0.729071 2.9877
1227 3 21.4547 19.5692 5.30034 -3.35092 2.94997 -2.01248
1284 1 19.5156 21.4418 4.98964 2.40353 2.13905 3.71019
2122 1 19.5255 19.5687 6.80141 -1.12486 6.93081 -1.60857
2185 2 21.3089 21.3378 6.84173 -7.76347 4.57514 -0.541423
2184 3 19.6037 21.3019 8.77055 1.7353 0.449106 0.654433
2127 2 21.3283 19.5588 8.51449 0.231895 -0.521873 -2.40496
2129 3 24.9243 17.8103 6.87764 0.903392 1.89367 -3.27577
1231 3 25.0497 19.5408 4.69745 0.360826 3.22086 4.13045
1288 3 23.2101 21.2914 5.18694 -3.18169 -1.58552 2.33878
2126 3 23.2021 19.3918 6.90925 7.03378 4.67335 2.0353
2189 3 25.0177 21.1955 7.00071 -6.09947 -2.3928 5.09914
2188 3 23.207 21.2694 8.47856 -4.31569 0.961572 -4.29779
2130 3 26.7224 19.4646 6.69962 -3.68987 4.24471 2.05961
2222 2 1.57886 26.7392 6.86872 -2.58943 -1.90237 10.8073
2163 2 -0.0259863 23.3738 8.67251 -0.515932 -9.55576 6.3614
1267 3 3.35319 23.2255 5.06788 -2.19641 -0.203725 3.22914
1324 1 1.50812 24.9929 5.12419 0.0548476 3.66688 -0.231689
2162 1 1.65576 23.2002 7.00187 2.17524 0.323002 3.81793