ITEM: TIMESTEP
84600
ITEM: NUMBER OF ATOMS
13500
ITEM: BOX BOUNDS pp pp pp
-2.1326941966293234e-01 5.3733269419651798e+01
-2.1326941966293234e-01 5.3733269419651798e+01
-2.1326941966293234e-01 5.3733269419651798e+01
ITEM: ATOMS id type x y z vx vy vz
7 3 3.33692 1.57371 1.56364 -4.69924 5.51771 6.13638
64 1 1.31159 3.38535 1.47057 0.337187 2.07205 -5.74689
902 2 1.25559 1.45347 3.4077 -5.23806 1.85818 -2.67371
965 2 3.34197 3.56284 3.40589 2.28219 -0.76969 -2.70698
4 1 1.38235 -0.0811353 1.84257 5.57602 -2.92045 -5.85174
5 1 3.12094 -0.0735429 -0.15436 3.51779 -3.39112 -4.20867
11 1 6.8772 1.61931 1.57472 -0.432199 -0.498772 -1.98352
68 2 5.30376 3.16781 1.71621 5.40438 -5.37945 1.92407
906 1 4.86892 1.45775 3.28853 1.49709 9.8856 3.09579
969 2 6.72028 3.18737 3.37422 -1.3542 -2.12064 2.76346
72 1 8.77751 3.64476 1.63682 3.60694 -3.92826 -3.47764
910 2 8.64912 1.46998 3.54852 2.06448 -3.67357 -4.10122
69 1 6.79445 3.48746 -0.113771 2.50953 7.76295 -0.531224
8 2 5.04016 -0.00331199 1.53944 2.63739 -5.84774 0.00462274
10 2 8.58393 1.56426 -0.0742153 -1.86238 -3.81214 4.24146
9 1 6.91647 -0.101492 -0.163086 -3.39316 -3.28722 2.98079
15 2 10.3792 1.75476 1.55255 7.93798 -1.15195 6.05022
76 3 12.295 3.48269 1.43262 -3.36372 0.899612 0.232803
914 3 12.4818 1.51847 3.39309 0.891795 -4.97576 2.30123
973 3 10.6402 3.30951 3.36408 6.00454 -1.46531 1.33359
14 2 12.4778 1.72435 -0.116212 4.61022 0.576326 -1.76631
913 1 10.4067 -0.180803 3.31421 3.00981 -3.09922 2.91231
13 3 10.4619 -0.0978479 -0.0796213 -2.26355 0.530198 -1.81484
16 1 12.3552 -0.139279 1.44717 1.37103 2.22379 -6.38775
19 3 14.1852 1.69707 1.52754 1.58448 -2.91668 0.246132
80 1 15.6533 3.57879 1.76674 -6.5758 5.47853 -2.90777
918 3 15.763 1.47161 3.49939 -1.86253 -4.87281 5.19766
977 2 14.1303 3.8612 3.81851 -2.27585 -1.00828 -0.453171
20 3 16.0019 0.00898758 1.64495 5.70573 0.121337 0.554138
921 2 17.7338 0.0532084 3.4072 3.70711 -2.2485 -4.07822
981 1 17.606 3.68889 3.32617 -3.64686 0.528034 1.6353
23 3 17.5968 1.72675 1.44451 -12.8525 2.98691 3.98178
77 2 14.3589 3.63297 -0.154483 0.259309 2.63993 7.3217
27 3 21.4668 1.67072 1.12861 1.22557 -5.4461 2.10679
84 3 19.5586 3.24622 1.38228 -6.05046 -3.759 1.91868
922 3 19.406 1.57688 3.38822 7.87652 4.83441 -5.76275
985 3 21.1204 3.25417 3.43935 -0.456042 -1.95195 -4.37256
925 1 21.3761 -0.180598 3.25793 1.70513 -2.77767 -2.5691
24 3 19.4048 -0.00616469 1.41323 2.07177 3.52181 5.12129
31 1 25.2051 1.53626 1.57833 4.58509 -0.648227 0.366951
88 2 22.998 3.48953 1.58172 1.02065 -5.8821 6.02912
926 1 23.1147 1.43346 3.32362 -1.19873 -2.10232 1.93942
989 1 25.0409 3.19867 3.09569 0.100532 1.84557 4.72386
32 2 26.6739 -0.0979781 1.6178 -3.41741 -3.86985 2.60791
28 2 23.0982 -0.0708366 1.64039 -1.60024 -4.60625 -2.57984
89 2 24.9642 3.44407 -0.0504461 -1.26493 -3.07382 2.92233
67 2 3.2055 5.0983 1.62394 1.62725 -0.608649 -1.16863
124 2 1.55046 6.86901 1.62302 -2.40179 4.79874 2.84525
962 1 1.35386 5.34923 3.49582 1.68825 3.38533 1.8975
1025 1 3.42932 6.85159 3.35086 0.0572475 1.25499 3.19287
62 2 1.35671 5.26755 -0.136728 -7.59264 1.28649 -0.501707
122 3 1.35402 8.7517 -0.040591 -3.87022 7.36204 -0.270491
71 2 7.0599 5.22171 1.49107 -2.234 -2.30788 0.787385
128 3 4.88211 6.94479 1.60142 6.09535 -8.3114 -0.492845
966 1 5.28066 5.33377 3.35137 2.22742 -3.97057 6.6146
1029 2 6.83719 7.07114 3.50324 1.58053 3.55525 -3.42809
131 1 6.86261 8.68544 1.54176 2.88316 -2.61752 -5.47453
129 1 6.89143 6.87535 -0.176936 5.60586 -0.813304 -1.76477
132 3 8.37622 6.98885 1.74805 0.384027 3.33449 -2.10792
1030 3 8.60501 8.63076 3.3052 3.40412 1.18317 2.75911
970 1 8.97131 5.19903 3.60487 5.60912 -4.26171 1.82198
75 1 10.4475 5.21058 1.51462 -4.30164 5.29183 0.808204
136 1 12.3363 7.11212 1.51309 -2.3576 -0.398645 1.64371
974 3 11.9521 5.31702 3.36229 0.825476 -1.8972 -2.99978
1033 3 10.3875 7.09903 3.04322 1.21278 -2.94964 -1.65388
1034 3 12.0535 8.77813 3.25656 2.90793 4.34038 4.23357
79 1 14.0726 5.4716 1.63112 -7.69752 3.01319 -4.99233
140 2 16.0401 7.23198 1.44926 2.63026 3.31475 4.43661
978 1 15.8641 5.50861 3.35871 2.31993 2.8871 -3.71651
1037 2 14.0533 7.06243 3.20565 1.84492 -0.941537 2.18
83 2 17.5289 5.20612 1.63841 -0.242477 8.45293 3.14743
1041 2 17.5153 7.24784 3.24048 -2.65642 5.15282 -1.21793
87 1 21.1615 5.07518 1.55359 2.37353 5.11644 6.67524
144 1 19.4007 7.0968 1.51419 1.13384 4.31603 0.309624
982 2 19.4208 5.14394 3.13442 -0.886469 2.62666 0.428398
1045 2 21.3176 6.97512 3.24658 0.811943 -0.752113 4.63014
145 2 21.205 6.91998 -0.166678 -1.42242 0.593482 -4.05686
91 3 24.8478 5.18991 1.40885 -4.17964 5.83592 3.30743
148 1 23.0589 6.74366 1.59514 3.51564 9.03812 3.02254
986 2 22.9184 5.07775 3.2469 -0.0686535 -0.0823038 -2.34158
1049 1 24.8601 6.6849 3.27174 -2.71561 -0.389934 -0.802515
146 1 22.9024 8.7466 -0.142153 -1.21045 0.132132 -3.91002
1046 1 23.1215 8.54899 3.26978 -0.0625224 -0.393781 -3.31701
151 2 24.9746 8.72222 1.55997 3.13665 5.6609 0.778153
1050 1 26.6004 8.62514 3.34671 -3.80526 4.8922 -1.35058
86 1 22.948 5.18728 -0.128244 3.48751 -6.0183 -1.18622
90 1 26.5918 5.29463 -0.170129 -3.61946 -1.20838 2.57175
1022 3 1.31263 9.05845 3.32742 6.52124 -4.44013 -1.36295
127 3 3.13621 8.85818 1.75978 -1.56817 1.39512 3.55324
184 3 1.35044 10.6476 1.72682 -2.97677 0.728239 3.31892
187 2 3.32897 12.4495 1.74695 0.618063 -2.16504 -0.266263
1082 1 1.41403 12.5037 3.39157 -3.13535 -1.81553 1.16461
1085 3 3.34023 10.5998 3.38957 -3.27874 -1.81578 -0.127174
182 3 1.47253 12.2819 -0.18325 -2.19948 4.85495 -0.169611
185 1 3.54856 10.512 -0.168782 4.54961 -4.80946 1.70663
1026 1 5.17046 8.79649 3.73698 1.19413 -2.68324 4.70492
188 3 5.15435 10.4465 1.89028 1.33 5.37288 2.30442
191 1 6.99979 12.3677 1.81599 -2.83958 -2.87055 5.85265
1086 1 5.02497 12.8009 3.39637 2.26818 1.3581 -3.08299
1089 3 6.91545 10.406 3.59756 1.422 -0.176018 -3.47809
1090 3 8.76381 12.3044 3.27886 1.8663 -2.39045 -1.52069
192 3 8.63315 10.4388 1.50965 2.50222 -1.59661 3.38011
186 1 5.15179 12.2942 0.00419569 -3.71043 -2.03478 2.20831
189 2 6.85623 10.6988 -0.00388174 2.60084 1.47951 1.60053
190 2 8.55089 12.3113 -0.167461 1.74658 -0.603731 -0.554431
135 3 10.4869 8.96453 1.3097 -1.66834 -4.30606 5.83791
195 3 10.2735 12.4384 1.38472 -2.95811 6.4811 -1.95246
196 3 12.4301 10.8649 1.58099 -2.10522 5.00513 1.78896
1093 3 10.4698 10.4286 3.15785 -6.3539 -8.04057 -5.04964
1094 3 12.3537 12.4474 3.21924 1.7635 0.140653 -5.17746
194 1 12.2241 12.6533 -0.177078 -2.91685 8.52687 -0.871317
139 3 14.1655 8.89507 1.55735 -1.93326 9.85411 -4.23447
1038 1 15.9588 8.86217 3.19721 -4.99841 4.97181 0.0307957
199 3 14.0183 12.7131 1.34628 -3.17661 1.99465 2.51312
200 3 16.1009 10.7104 1.56081 4.96792 3.25428 -1.45746
1097 3 14.2567 10.7962 3.28641 -9.60266 2.89157 -3.11759
1098 3 16.0291 12.7282 3.15332 2.04184 -1.31357 2.59514
1101 2 17.5929 10.6306 3.34961 1.02619 0.261635 4.73729
143 1 17.7644 8.9373 1.47473 -0.972186 0.112414 3.61442
147 2 21.2878 8.86258 1.63019 2.16631 4.45254 -1.46118
203 2 17.8789 12.6703 1.51934 2.22074 1.77486 1.26767
1042 1 19.4884 8.97596 3.21331 1.27832 -0.385479 -4.28648
204 1 19.3366 10.9563 1.47693 -5.63729 -5.9102 4.29106
207 2 21.6117 12.3101 1.37824 1.13186 -7.96517 -3.27755
1102 3 19.4324 12.5828 3.4208 4.13249 -3.09764 1.71036
1105 2 21.0814 10.6009 3.1702 1.28999 -3.02684 -3.8823
142 2 19.4274 8.89965 -0.194956 5.85599 -4.06544 -2.20295
212 3 26.7455 10.6157 1.57915 1.9922 8.0163 3.12063
208 1 23.0582 10.3396 1.61738 -4.06009 -0.909647 -0.599146
211 1 24.5224 12.4493 1.57982 -4.44997 2.94131 -3.0239
1106 1 23.0004 12.5045 3.42211 5.07677 4.50476 0.864502
1109 2 24.9349 10.4772 3.18231 -2.12675 -1.5763 1.55095
1110 3 26.5527 12.2669 3.38401 -0.152456 -1.4674 4.21557
210 3 26.4523 12.3404 -0.0843832 6.96172 -0.386501 -3.23614
209 3 24.7135 10.4617 -0.0765072 3.15956 4.52554 -7.26917
150 1 26.6063 8.83661 -0.0880429 1.88608 1.82101 6.71147
244 1 1.41488 14.3762 1.5532 4.18348 7.03124 -3.90765
247 1 3.48178 16.0827 1.52209 1.55023 1.28451 2.92416
1142 2 1.46408 16.2102 3.30287 -3.62876 -7.31819 6.28466
1145 2 3.09013 14.4371 3.13162 -2.63336 -3.93888 -3.89157
245 2 3.39336 14.1824 -0.154004 -4.12751 0.980227 -0.250095
248 2 5.16132 14.2345 1.5713 -4.29039 -5.9216 -1.36694
251 1 7.00545 15.9616 1.55235 -0.539417 6.28603 -7.79035
1146 1 5.16727 16.1894 3.54378 0.976238 1.18308 -3.11831
1149 2 7.04779 14.1655 3.57177 1.34751 -4.946 -0.507035
250 1 8.75312 15.9954 0.0525713 1.66628 -0.982339 -1.54938
1150 1 8.60409 16.0196 3.48631 0.456801 4.55391 4.66474
249 3 7.00558 14.1369 -0.105991 -2.17571 -1.30412 -2.98818
252 2 8.67514 14.1351 1.83098 -1.57205 3.02014 1.87417
309 2 7.14888 17.6276 0.0332066 0.773877 0.954216 0.284423
312 1 8.52367 17.7267 1.72427 4.43317 -0.759554 -2.18377
255 2 10.2344 16.0135 1.77286 -3.74818 1.00245 0.920024
256 1 12.2507 14.4605 1.43618 -1.12911 -5.35836 -1.96524
1153 1 10.8061 14.0313 3.13197 -0.0240514 -4.33641 -3.13999
1154 2 12.335 15.9339 3.40301 3.43918 0.912417 -1.36807
253 1 10.2215 14.1543 -0.109567 -3.28494 3.71534 -0.503852
316 1 12.4067 17.7674 1.75275 0.864905 2.92783 -1.99349
254 2 12.0742 16.0483 -0.205931 7.39029 -2.70367 0.91052
1213 2 10.5195 17.6793 3.40904 -2.50274 -1.91983 0.254595
313 1 10.6291 17.7008 0.038899 -8.09411 1.65587 -0.918649
259 3 14.2018 16.1624 1.53527 -5.19575 0.731094 4.76967
260 1 16.0402 14.4273 1.623 -0.649288 -2.21947 -1.90513
1157 2 14.1739 14.3587 3.38229 -3.44484 5.39519 0.996965
1158 2 16.0496 16.2296 3.39345 8.71859 3.73007 0.160319
1161 2 17.7038 14.5726 3.47839 3.90025 3.93029 11.7098
261 3 17.9242 14.3554 -0.141724 -1.76132 -3.89504 -7.93603
263 1 17.8231 16.0384 1.7014 -3.32636 5.73443 3.1078
264 1 19.8405 14.3867 1.42345 -1.62359 0.00643734 5.37582
267 2 21.1498 16.1881 1.68908 4.51819 3.05958 -0.359837
1162 1 19.5666 16.1131 3.36358 3.27986 -1.3045 -3.15909
1165 2 21.0742 14.3064 3.41418 9.04625 -2.46398 -3.22173
272 2 26.6689 14.0926 1.7025 -2.64215 5.32674 0.0427853
268 1 22.9521 14.3463 1.63752 -4.31899 3.84927 2.50098
271 1 24.7605 16.1064 1.58536 1.90696 4.58244 1.92867
1166 3 22.9076 16.1618 3.19852 -0.0995858 -1.83741 -1.44784
1169 2 24.9513 14.0066 3.3683 -1.32466 3.32504 -1.48692
269 2 24.7917 14.3491 -0.175081 1.39505 -0.450499 -9.20457
1170 1 26.5418 15.9017 3.43418 -4.33582 8.1239 0.643531
332 2 26.5955 17.7456 1.9036 -0.267012 -4.62333 -1.12742
304 1 1.50384 17.7826 1.781 -5.22817 -2.90238 3.16547
1205 1 3.5875 17.9521 3.46773 -0.300377 -0.319459 -0.755155
307 3 3.57882 19.5208 1.52689 3.0663 -2.24392 4.38126
364 3 1.33813 21.4128 1.62875 2.07025 2.20295 -1.3675
1202 3 1.66616 19.6306 3.26651 -4.38694 -1.83504 -2.0362
1265 3 3.44836 21.3603 3.31277 4.54805 2.60104 -4.1253
303 2 0.0203131 19.4555 1.44532 -8.46393 4.35457 1.67691
1209 2 6.92421 17.9299 3.24422 6.54097 4.11739 -2.61941
308 2 5.16435 17.7756 1.5855 1.74498 -4.61193 6.47193
311 1 6.78938 19.8087 1.48824 3.29689 -4.28842 3.27667
368 2 5.31613 21.5898 1.59404 -0.813532 -1.78406 2.39078
1206 2 5.21708 19.5342 3.39248 2.53985 -1.14104 -3.76575
1269 1 6.80154 21.4576 3.60543 -3.29259 -0.174326 -1.42385
372 2 8.69484 21.3078 1.82677 -1.20323 1.43401 -3.30043
1210 2 8.66165 19.5251 3.33132 -2.97425 -1.31488 0.856035
310 2 8.77394 19.412 0.0276059 -0.347013 -4.52353 -0.965753
315 1 10.5872 19.4907 1.74116 2.40087 -2.29433 2.393
376 2 12.5201 21.4211 1.83319 7.34887 4.16574 3.49796
1214 2 12.452 19.449 3.31531 0.571944 1.55085 -2.61615
1273 1 10.5831 21.2468 3.37442 0.858774 -4.17076 -6.56317
314 2 12.3781 19.5794 -0.136723 0.91159 2.13695 0.153898
373 3 10.6348 21.5049 0.0558713 0.946084 -7.34347 -4.6964
1217 1 14.2163 17.7965 3.53604 3.71529 5.13594 1.58912
320 2 16.2091 18.0597 1.61862 -3.88402 2.05645 -0.809677
319 1 14.0878 19.468 1.59707 2.41837 4.00712 10.1702
380 2 15.8654 21.0839 1.77386 -1.93019 -2.55823 -1.58348
1218 2 15.9356 19.5014 3.55469 -9.1742 3.34381 2.20226
1277 1 14.0281 21.2447 3.38626 -8.31408 -2.64783 0.296823
377 1 13.9101 21.4825 0.0510538 1.97847 0.449106 -1.37714
1281 1 17.4384 21.6282 3.4357 3.2912 0.145978 3.02767
381 1 17.5431 21.241 0.134258 -2.48033 1.35035 1.04931
317 2 14.1045 17.942 -0.0387721 5.79339 -4.73203 3.48261
1221 1 17.7569 17.787 3.66723 -0.821826 -0.692254 -2.43689
324 2 19.2228 17.8275 1.54634 -2.04749 11.1915 -3.44411
323 1 17.8498 19.5489 1.77126 9.42836 5.39705 -5.7627
1225 3 21.0038 17.9942 3.49058 0.00714859 0.706667 5.07048
327 3 21.1771 19.6474 1.80847 4.45098 -5.5464 4.08218
384 2 19.4553 21.5255 1.80397 3.72851 -1.68822 -2.62254
1222 2 19.2313 20.0679 3.51167 1.59508 7.33971 -0.59641
1285 3 21.3047 21.2965 3.53868 -0.254889 -8.28114 0.241778
322 3 19.4762 19.5749 -0.0540002 -0.240884 3.00558 -1.96468
325 3 21.2752 17.8284 -0.100406 1.86723 3.27464 -7.94044
385 1 21.157 21.3661 -0.0149385 -2.656 -4.66357 0.0125969
329 2 25.1965 17.9325 -0.00229483 2.30657 6.6447 2.70631
1229 1 24.8127 17.8508 3.71585 2.7742 1.77813 0.174117
328 3 22.8706 17.935 1.59888 2.78802 -0.00355234 3.01273
331 1 25.1399 19.7283 1.72905 -2.27349 3.72699 1.83778
388 2 22.9438 21.7254 1.53797 3.43055 0.517882 -1.31847
1226 3 23.1712 19.6846 3.40095 3.0242 -4.72795 6.77349
1289 3 24.7956 21.6517 3.62193 -0.0526939 1.06323 1.74789
326 3 22.9286 19.7224 -0.0114471 -2.1859 -2.40725 -3.54687
392 2 26.7198 21.5734 1.66277 -0.116161 6.35652 -2.46414
389 1 24.6889 21.376 -0.120433 -0.866137 -1.60974 4.30585
1230 3 26.5962 19.8255 3.65876 -0.591365 -0.433149 -4.13668
367 3 3.31363 23.32 1.69114 -5.23688 -3.01215 1.51347
424 1 1.51558 24.9774 1.65665 -2.06916 -1.30762 -1.84864
1262 3 1.37113 23.1503 3.26048 -1.05714 -2.94104 -2.20427
1325 3 3.32851 25.1761 3.31856 -7.50631 4.74998 -1.00184
425 2 3.30223 24.9659 -0.0327538 -2.67187 -0.0612345 -0.307523
371 1 6.93433 23.335 1.82975 1.61188 4.37172 -1.77411
428 1 5.19807 24.9355 1.78342 -1.97265 -2.27925 0.482177
1266 1 5.32694 23.1846 3.61739 5.05217 7.15767 1.69478
1329 2 6.98387 25.104 3.54063 2.55163 -0.20395 -1.04212
431 2 7.01248 26.7223 1.52334 2.33738 0.0497302 3.50115
426 1 5.22968 26.5969 0.0260603 -0.912495 -0.313587 -1.49843
366 2 5.12252 23.3152 -0.0747508 -0.985245 -1.22916 4.57064
1270 2 8.82663 23.3246 3.39372 0.754295 4.75217 -2.92529
432 1 8.88627 25.1517 1.97989 -2.28867 3.83722 4.22463
375 3 10.5048 23.2342 1.78268 -1.06992 4.42182 -0.164262
436 2 12.4496 25.1774 1.89325 -1.86252 2.51908 -0.052552
1274 2 12.4512 23.3368 3.56858 1.74478 5.22252 -1.41623
1333 1 10.698 25.2376 3.56317 -5.74778 -2.9627 -0.099777
374 3 12.1246 23.6638 0.0345585 -1.29828 6.65574 3.58482
379 3 14.2686 23.3736 1.76516 -3.69545 2.31088 -6.74407
440 1 15.9251 25.0904 1.54531 -2.07188 2.87721 -3.63616
1278 2 15.6841 23.208 3.50706 -4.36852 0.574143 0.661722
1337 3 14.1034 25.4326 3.7488 -0.137194 1.10507 -2.86619
1341 2 17.6513 24.695 3.45271 6.11882 7.07698 5.6784
383 2 17.7531 22.9874 1.75475 4.70195 4.43104 -3.99529
378 1 15.8474 23.0478 -0.0169094 0.166406 3.31555 2.72106
437 1 14.005 25.0728 -0.0459812 0.318895 7.49394 -6.5847
441 3 17.5827 25.1112 -0.0795268 5.02444 0.135646 4.28968
387 3 21.0616 23.3395 1.64119 -3.99447 3.36004 -3.36835
444 1 19.3352 24.9462 1.36982 1.03091 2.83962 -4.66295
1282 1 19.4811 23.151 3.45131 -1.98489 0.277767 -2.19979
1345 2 21.2734 25.1738 3.3382 -6.3462 0.0826356 3.03047
445 1 21.0158 25.0834 -0.0682546 -1.45019 -7.71239 -2.00886
1342 3 19.6151 26.7155 3.1994 -2.4471 -3.19428 2.04781
452 2 26.74 25.3656 1.78304 -0.515453 -4.42772 -4.38041
391 3 24.8308 23.2488 1.70534 2.69356 -3.27323 -5.74682
448 1 23.1659 25.0239 1.53354 -3.4508 -3.02707 5.59954
1286 1 22.9772 23.4161 3.36057 5.28353 -4.2105 -2.57344
1349 2 24.9628 25.2403 3.30684 9.67885 -0.276511 8.13246
449 2 24.8628 25.2319 0.0428452 -0.372875 -1.40047 -5.23329
390 1 26.6772 23.6206 0.133271 0.305619 -2.96519 -2.43453
386 2 22.9676 23.3541 -0.0413683 -2.28645 -0.106557 -3.63847
907 1 3.35706 1.63634 5.06939 -0.541467 -0.560457 0.07713
964 3 1.54821 3.46375 4.98493 2.05403 3.41946 -0.0810901
1802 2 1.51043 1.63923 6.95056 0.358681 -2.20629 0.415015
1865 3 3.30831 3.61947 6.85855 5.26861 -1.77876 5.93132
1801 1 -0.0892895 -0.0289331 6.95795 1.90479 -0.412986 -2.57045
1864 1 1.37974 3.30244 8.62795 -5.1227 -1.65361 -4.17981
1805 1 3.2054 -0.145151 7.01397 0.60253 2.92043 -0.727972
911 1 6.66894 1.77336 5.0875 0.218651 2.90759 1.94244
968 2 5.13764 3.55628 5.32372 3.04166 -5.39278 0.328088
1806 2 4.76471 1.3661 6.97385 0.993654 1.85028 -1.92632
1869 1 6.82217 3.36922 7.04038 -3.10358 1.58591 5.62154
972 3 8.70672 3.38408 5.0543 -0.4683 0.532897 6.80346
1809 1 6.94821 0.031941 6.95906 0.76644 -7.08347 -1.61547
1868 1 5.01842 3.43063 8.59451 -1.62153 7.31512 -2.91133
1872 2 8.71874 3.32466 8.65917 -3.8504 0.389293 -5.87972
1810 2 8.77465 1.58978 7.01056 -3.82475 -6.73559 -3.83568
915 1 10.4914 1.53923 5.13594 -1.32889 -8.17082 -4.43456
976 1 12.4425 3.30827 5.20327 -10.6002 2.21754 4.84548
1814 2 12.4865 1.29299 6.96599 -2.0164 0.648926 4.42586
1873 3 10.5453 3.31703 6.90573 2.44744 2.11251 -3.94642
1813 3 10.4516 -0.19287 6.75779 -3.60557 -0.645233 1.97208
1876 2 12.4199 3.44711 8.63053 -4.62633 -0.686777 -1.75878
1815 3 10.5622 1.62835 8.66616 -0.324606 -0.93399 -1.11185
919 2 14.1122 1.48075 5.12531 4.82333 1.99668 2.31637
980 2 16.0504 3.49468 5.20901 -0.870316 0.930269 3.65042
1818 2 15.7477 1.49791 7.03263 -2.05321 2.86513 -0.164667
1877 1 14.3341 3.45456 6.74351 11.8447 -1.30782 8.72904
1881 2 17.5394 3.5519 6.87091 -0.728593 -2.89429 2.42345
1819 1 14.3598 1.65955 8.71329 -2.1519 4.93163 -0.447238
923 3 17.7387 1.59566 5.01038 6.58899 -2.03526 -5.60628
1823 3 17.5974 1.83173 8.39214 -6.00867 -0.0297676 -3.55919
920 3 15.9719 -0.130963 5.41887 2.515 6.21903 6.68401
1880 2 15.8597 3.43853 8.76832 1.65477 5.20661 -3.60033
1825 3 21.2854 -0.131938 6.98425 -5.70173 2.20299 0.930496
927 2 21.4438 1.51023 4.88525 1.93104 1.18178 -7.05093
984 3 19.3476 3.41202 5.1502 -1.99912 -3.0354 -2.7595
1822 3 19.6097 1.6814 6.81482 4.58441 -0.86687 -4.58997
1885 3 21.2549 3.58959 6.93915 -2.41368 -1.62604 6.64668
1884 1 19.3729 3.79561 8.5761 -1.68572 -0.228201 7.78594
1827 2 21.4873 1.52965 8.72696 2.78086 -3.27421 2.23275
1824 1 19.4029 -0.171837 8.50773 1.5455 -0.298743 -1.84629
1821 2 17.975 -0.133478 6.83717 -0.129703 7.65842 -1.95072
1828 1 23.0607 -0.0656074 8.7556 -1.67863 6.51447 1.23551
1829 1 24.8035 -0.197904 7.01782 2.21808 -8.63849 1.65784
1892 2 26.7078 3.19756 8.7447 0.179693 0.168823 7.90322
931 2 24.6503 1.66836 5.25613 -2.52085 -1.49894 -2.73872
988 3 23.2077 3.37972 4.912 -0.79659 -1.15178 2.60805
1826 1 22.881 1.5695 6.66055 -1.20668 2.28692 -2.49333
1889 2 24.5876 3.43621 6.91695 -1.45757 10.8894 2.94011
1830 1 26.6825 1.52471 6.81987 -1.76829 4.58555 1.31551
1888 3 22.9535 3.5709 8.69376 0.131477 3.02826 0.0262209
1831 2 24.4883 1.85502 8.69885 3.06606 -0.795146 3.82916
967 2 3.17452 5.26724 4.93657 -2.23661 7.0834 3.71394
1024 3 1.50537 7.19274 5.04203 0.531238 1.38772 -3.74421
1862 2 1.55891 5.17903 6.73994 -2.91257 2.33494 0.0641908
1925 3 3.33453 6.97811 6.8538 0.927911 -1.75824 -1.29884
1924 1 1.13194 7.1206 8.40779 7.83527 3.5209 0.175825
1863 3 -0.219474 5.33134 8.43083 -3.62798 -2.44275 -0.814848
1922 1 1.40954 8.76165 6.54144 4.13818 2.72351 7.74174
971 2 7.01285 5.1632 4.95613 8.23325 11.314 7.6411
1028 1 4.95062 6.84179 5.203 0.613507 -1.15258 4.18345
1866 1 5.15704 5.3662 7.11694 -0.072431 -2.01274 -0.722725
1929 2 6.82375 6.92552 6.94132 1.81374 0.409818 -0.240161
1870 1 8.53094 5.12081 7.02585 0.0615185 1.17775 -0.820492
1032 1 8.57002 6.9331 5.32316 0.62047 -4.75043 -2.63614
1932 2 8.63259 7.17571 8.69169 -3.10355 -1.70927 -0.246827
1031 1 6.89551 8.62834 5.22621 -1.89967 -3.3792 0.912548
975 2 10.5693 5.11121 5.40996 -1.7067 -3.52003 2.26286
1036 3 12.3504 7.26091 5.13324 0.979535 3.02376 1.59086
1874 1 12.2438 5.27432 7.01276 -2.8795 -1.50647 -0.906371
1933 1 10.2034 7.08879 7.05172 -3.34747 1.35157 1.67883
1875 3 10.3805 5.22298 8.71798 6.14639 -4.80503 1.5301
1936 2 12.1397 7.1826 8.74251 6.1317 -1.08206 2.28455
1934 1 12.3517 8.75723 7.02483 1.68342 -0.0566791 -1.45094
979 2 13.9813 5.42194 5.04192 2.6924 -0.372518 -1.49378
1040 3 15.9406 7.092 5.07984 -2.70703 2.09587 5.61713
1878 1 15.7854 5.40092 7.01792 7.30566 -3.29361 -3.01515
1937 1 14.1419 7.1557 6.86349 4.87247 -0.893644 -1.82513
1941 2 17.5919 6.86612 6.59907 -2.84047 0.920272 3.98534
1940 1 15.873 7.1819 8.50357 -2.28109 -1.32889 -4.85301
1879 2 13.8932 5.31532 8.67792 11.3245 -0.412579 -6.28911
983 1 17.6764 5.20968 5.05446 -6.18586 -9.48773 0.188305
987 3 20.9088 5.36633 4.81437 -2.95379 4.03273 -2.18353
1044 1 19.3256 7.23534 5.0074 2.94823 -5.3897 2.13644
1882 1 19.498 5.40674 6.83737 -4.54532 2.94202 -3.53307
1945 2 21.223 6.97112 6.67431 -3.41417 4.41225 5.81892
1944 3 19.4172 7.18036 8.71103 0.334606 2.14588 4.20286
1887 1 21.35 5.48717 8.7075 0.609922 8.70661 1.57963
1047 2 21.3905 8.71148 5.04121 -3.49148 -8.72564 1.09767
1890 1 26.7307 5.00826 6.86122 4.62645 0.933518 0.151224
991 1 25.2062 5.01448 4.99699 -3.21793 -1.61798 -1.90757
1048 1 23.1855 6.79657 4.9731 -6.58059 -1.65584 -4.83607
1886 3 23.1774 5.3077 6.97961 -4.02424 -0.74492 0.939141
1949 2 24.7699 6.81027 6.66095 1.1716 -3.15075 4.22969
1891 3 24.8944 5.15703 8.76978 2.9008 4.36955 0.320351
1052 1 26.6218 6.83122 4.93856 5.17933 0.179251 1.3983
1948 3 23.2346 6.87343 8.7737 5.50396 -0.681606 1.28253
1051 2 24.7194 8.79237 5.10886 2.91353 7.38938 -1.83383
1950 1 26.4607 8.54002 6.75175 1.61793 -0.301355 -3.02397
1946 1 23.0072 8.50698 6.79846 7.13964 -2.06279 5.55996
1027 2 3.13543 8.90078 4.9695 0.0415509 2.39521 3.17558
1084 1 1.48411 11.0053 5.03485 -3.48841 -2.52166 -0.726085
1087 2 2.90685 12.4378 5.07325 -3.52372 -2.47409 -1.27422
1982 3 1.45731 12.5061 7.19155 -7.48778 0.58142 0.406555
1985 3 3.19433 10.7659 6.9585 -4.41475 -5.06787 0.704042
1987 2 3.44801 12.5041 8.64282 3.66618 -5.90761 2.21944
1926 2 4.82018 8.96913 6.85317 -1.09331 -2.00129 8.39929
1930 1 8.49414 8.91024 7.11226 -1.83165 0.793829 -1.84247
1931 1 6.74406 8.86768 8.65602 -3.16915 0.302549 0.415224
1088 2 5.00675 10.5752 5.23795 -1.42022 1.74533 0.458552
1091 1 6.79784 12.4255 4.98754 3.94466 2.80372 -3.60946
1986 3 5.06506 12.47 6.74992 5.24418 -3.22086 -5.41914
1989 3 6.91164 10.5301 6.83842 -0.364387 -3.26987 2.32011
1990 1 8.71572 12.4478 6.78498 -0.369149 1.13683 5.12517
1991 3 6.79597 12.6239 8.60547 -1.93929 -5.85069 0.33617
1092 2 8.7395 10.5595 5.03764 2.52641 6.88782 0.863872
1992 2 8.57785 10.921 8.74433 0.383377 -6.30362 2.94039
1988 2 5.20452 10.558 8.72822 -2.40228 0.797761 -1.21854
1035 2 10.243 8.80489 5.18225 2.41902 1.28736 0.142508
1095 2 10.6948 12.062 4.9515 3.7469 1.68831 -3.31014
1096 3 12.2923 10.2227 5.03958 -6.41105 -0.943961 -3.8937
1993 3 10.6795 10.5086 7.02854 1.8121 -4.66115 0.337543
1994 1 12.1527 12.295 6.75763 7.97921 0.502083 -1.09117
1996 2 12.3888 10.5841 8.67648 1.12308 -6.95174 2.11876
1935 3 10.3128 9.04739 8.71043 2.31335 -1.1743 1.34529
1995 1 10.6006 12.494 8.64513 -2.50392 -1.33261 -2.49093
1039 3 14.2902 8.80418 5.01413 1.95164 -0.881999 -1.69439
1938 3 15.6433 8.98638 6.88946 0.746492 -7.10327 -1.63276
1099 3 14.0024 12.4456 5.01831 -0.876711 2.57369 -1.44446
1100 3 15.7992 10.8165 5.12029 -2.79451 -4.2404 -2.04288
1997 3 13.9256 10.6804 6.90651 -6.58867 3.79214 1.70528
1998 2 15.8641 12.5198 6.90222 2.19434 1.54918 -4.2963
1103 3 17.699 12.4569 5.06444 -0.636672 -3.6278 -2.48666
1043 1 17.5266 8.92729 5.23144 -0.567576 -0.73473 0.22662
1999 1 14.2981 12.4494 8.49897 -1.92514 -4.28055 -3.3832
2001 2 17.5763 10.7748 6.91526 -1.55456 -1.24252 -4.81666
2000 1 15.9335 10.6056 8.61519 -0.264313 4.36252 -3.17526
1939 2 14.0971 8.83985 8.74898 -3.01502 -0.236708 -5.5027
1943 2 17.7982 8.85352 8.4743 -1.68621 0.368553 1.45154
1942 1 19.8702 8.83984 6.75055 -3.79174 -7.37887 -4.22757
1104 2 19.4716 10.719 5.1527 8.86916 3.47756 -0.0361094
1107 2 21.4285 12.3821 5.1603 -0.863745 -2.60225 4.82808
2002 1 19.78 12.425 6.95709 -2.46291 -0.726908 -4.98446
2005 1 21.3759 10.8032 6.65512 0.942795 -0.466868 -1.965
2004 3 19.6443 10.6501 8.59831 2.29892 0.518684 -0.86499
2007 3 21.5616 12.4271 8.70387 3.97715 -1.56797 -1.05228
2012 3 26.6336 10.5733 8.71268 -6.37026 1.60361 5.86415
1112 3 26.5998 10.3666 5.1315 1.61985 -11.2751 2.38215
1108 1 22.9733 10.501 4.94635 1.54338 1.64272 6.0213
1111 3 24.927 12.3046 4.91865 4.06167 -5.88841 -4.483
2006 2 23.3273 12.2428 6.87184 1.24244 -5.22711 -1.64282
2009 3 24.8263 10.4654 7.15456 6.55714 -2.53502 -3.22672
1144 1 1.50733 14.498 4.87055 6.9183 -6.43042 0.807813
1147 3 3.43491 16.2965 5.28473 5.69009 -2.68482 5.98877
2042 2 1.24381 16.1947 7.09916 -2.37959 -1.49555 8.11284
2045 2 3.05296 14.1306 7.01062 2.3031 4.60522 -1.94659
2047 3 3.22849 16.1893 8.73923 -1.11526 6.97731 -6.29165
1148 3 4.99497 14.3582 5.15471 -5.95316 2.66291 2.43767
1151 1 6.99239 16.0606 5.121 -0.626182 0.311719 -0.0733572
2046 1 5.39979 16.3562 6.83021 0.183269 2.62078 -2.85118
2049 2 6.98045 14.3787 6.76745 -0.298454 2.47029 6.55461
2050 3 8.60113 16.0349 7.13166 -1.91348 -1.03557 -2.76037
2048 3 5.12686 14.34 8.34514 1.04853 2.79497 3.40577
2052 3 8.70795 14.2195 8.70941 -8.67193 2.69937 3.70238
2051 3 6.80046 15.9106 8.76032 3.76964 2.44618 -1.55385
1152 3 9.0047 14.0818 4.84166 2.67204 -0.257977 -4.87627
1155 1 10.3832 16.17 5.17381 1.23305 5.14789 2.59397
1156 1 12.0435 14.2187 5.10185 1.51356 -2.05745 -1.63249
2053 2 10.5252 14.1274 6.80023 -1.0678 5.83449 -5.13421
2054 1 12.3705 15.6712 7.14647 -8.04613 3.56553 1.37715
2055 1 10.548 15.8562 8.75882 2.96512 -8.77154 9.5222
2113 2 10.615 17.6733 6.98486 4.10137 -1.20411 -2.83917
2116 1 12.041 17.547 8.67257 3.71485 1.01124 0.378655
1216 3 12.1545 17.7157 5.18679 5.18457 -3.22509 -4.82107
1159 3 14.0447 16.1251 5.19214 -1.03044 7.38194 8.66306
1160 1 16.0367 14.3762 5.10282 0.682089 -0.345736 -1.99086
2057 2 14.0228 14.0522 6.84425 3.82143 -3.68533 -3.26893
2058 3 15.7059 15.9281 6.95265 1.62352 1.43064 7.735
2060 2 15.9188 14.2548 8.60169 -1.55568 -3.93107 -0.460889
2063 3 17.7424 15.8535 8.37228 4.03343 7.37847 -6.39518
1163 3 17.6314 16.0943 5.67688 -5.06768 -2.60259 4.46357
2117 2 13.8662 17.7083 6.98472 0.582054 -4.50997 -4.55663
2061 1 17.817 13.9763 6.80229 2.04921 1.4026 -7.9135
1164 3 19.5074 14.5457 5.22032 -7.47189 7.14894 -0.398091
1167 1 21.3007 16.2322 5.38664 -1.44153 -0.534425 3.49895
2062 1 19.8226 16.0407 7.10396 -0.898523 -6.42274 -0.31412
2065 2 21.3596 14.0789 7.10697 -5.14092 -0.0156422 -3.02807
2064 1 19.6189 14.2197 8.54632 -5.50458 1.37193 2.47326
2067 2 21.3962 16.1877 8.74494 -3.38211 -5.71925 1.47233
2070 1 26.6418 16.2052 6.76956 -3.49979 0.273571 -1.36742
1168 1 23.005 14.418 4.95766 1.95966 -0.289256 -2.119
1171 3 24.7978 15.8968 5.13459 2.28203 1.83299 2.03113
2066 3 23.0155 16.1627 7.02873 -4.7334 -1.3469 1.22641
2069 3 25.0615 13.9815 6.92449 1.23189 -9.61927 -8.13481
2068 3 23.2246 14.0716 8.71487 7.59805 0.262847 -1.18973
2129 3 24.9182 17.7532 6.97622 -1.78494 -1.37984 -2.92576
2105 1 3.47334 18.1363 7.10444 -4.45008 4.31381 2.9243
1204 3 1.42782 17.8845 5.39438 -3.99768 -1.79313 -1.62393
1207 3 3.26568 19.8736 5.13591 -0.831007 0.6911 0.197112
1264 3 1.36308 21.4951 5.00996 -1.90024 -0.230819 -1.15986
2102 3 1.69961 19.8067 7.12216 -2.46202 -3.37703 5.52536
2165 3 3.36839 21.5011 6.90398 1.30097 -2.09152 5.72435
1212 2 8.61749 17.9185 5.13189 -5.45288 -5.58186 -6.43585
2108 2 4.96643 17.8409 8.68108 3.81283 -0.882526 6.10932
2109 1 6.96308 17.9629 7.01885 -3.86338 3.86985 1.90724
1208 2 5.27249 17.971 5.22214 3.25896 -1.09445 -3.27092
1211 1 6.81857 19.631 5.16654 -0.716675 0.671875 1.35424
1268 3 5.1945 21.4918 5.215 -0.309531 -0.673137 -1.70102
2106 3 5.2532 19.6795 6.84767 0.876465 0.656742 -2.06764
2169 2 6.99032 21.3616 6.87058 4.87711 -12.9696 -3.0287
1272 3 8.69154 21.3089 5.10635 -1.5289 0.61617 -2.42191
2168 1 5.23767 21.5661 8.57637 -1.91533 -2.18806 -1.78267
2110 3 8.93075 19.6003 7.08443 -0.239442 -4.9121 -5.00562
1215 3 10.4131 19.2511 5.24069 3.95604 -1.80451 -3.99413
1276 2 12.3354 21.2308 4.99832 -0.134702 1.72496 -2.57013
2114 1 12.173 19.5361 6.95958 -0.730341 -0.925155 -1.79642
2173 2 10.5286 21.5212 6.82202 2.83192 5.68062 9.16284
2172 3 8.82035 21.4102 8.54621 -0.629776 8.73756 3.19651
1220 3 15.9672 17.8668 5.36712 2.54361 1.32692 1.58401
2120 1 15.7745 18.0849 8.77546 1.00579 -3.06886 -0.0755928
1219 3 14.1972 19.497 5.33781 1.89658 -3.63584 -0.503858
1280 1 15.8059 21.356 5.29539 3.68468 4.2468 6.58115
2118 1 15.7786 19.7618 7.15326 1.22381 -2.7722 1.94942
2177 2 13.9773 21.5017 6.83187 -1.91002 0.664492 4.10719
2181 2 17.7389 21.6935 6.99252 -2.29883 0.076005 -7.75443
2119 2 13.7823 19.6341 8.65821 -6.82531 -0.301286 -0.723472
1223 1 17.7965 19.6825 5.43197 4.65512 0.219359 1.73157
2121 2 17.8363 17.7863 7.40884 -6.90536 -3.01851 1.39279
2125 2 21.2896 17.8625 6.99761 5.48138 -2.66432 -2.45397
1224 2 19.2126 17.9503 5.50459 5.55425 4.30368 0.781
1227 1 21.0065 19.608 5.28576 3.24496 -4.92296 -2.15125
1284 1 19.5235 21.7299 5.45237 3.57713 0.115071 -1.23469
2122 1 19.5687 19.7413 6.90957 -4.01304 -2.16067 -0.528353
2185 2 21.4028 21.4823 6.93825 0.723311 -2.26495 0.796129
2184 3 19.7549 21.4435 8.64506 0.124004 -1.72263 1.4696
2123 3 17.8645 20.1793 8.67395 0.1758 -1.52397 2.26141
1228 3 23.1361 18.0881 5.2065 4.25056 2.76544 -0.10409
1231 3 25.0552 19.907 5.39742 1.74941 2.01266 -3.3973
1288 3 23.0499 21.5283 5.25593 -1.23379 -0.593172 2.27067
2126 3 23.1367 19.6234 6.99726 6.72201 0.51978 3.98847
2189 3 25.0004 21.5372 7.22603 -3.52244 1.38142 -5.05903
2130 3 26.5979 19.8361 7.0272 -1.26103 1.03632 1.05055
1232 1 26.5485 17.7924 5.17845 -4.56645 -0.273227 2.46747
2227 1 3.18996 26.5584 8.65948 5.39937 -2.90085 0.112381
1267 3 3.22207 23.3509 4.99614 -4.99145 -0.110934 3.86234
1324 1 1.47275 25.4486 5.01455 -2.97324 -0.330369 -1.28325
2162 3 1.48558 23.4711 6.86786 -1.57384 6.16141 5.58594
2225 2 3.19337 25.0215 6.85529 0.10644 5.38694 -2.5906
2167 2 3.29301 23.2789 8.66683 -1.14112 -3.96362 2.31171
2224 1 0.939275 25.3386 8.47344 -5.94415 4.66105 -1.9001
1271 2 6.9135 23.3224 5.14856 1.14404 0.291 -13.2963