ITEM: TIMESTEP
40200
ITEM: NUMBER OF ATOMS
13500
ITEM: BOX BOUNDS pp pp pp
-2.1228925474790472e-01 5.3732289254743122e+01
-2.1228925474790472e-01 5.3732289254743122e+01
-2.1228925474790472e-01 5.3732289254743122e+01
ITEM: ATOMS id type x y z vx vy vz
7 1 3.40092 1.69778 1.62652 -1.32496 2.714 2.19979
64 2 1.56027 3.44935 1.46431 -2.87617 -0.12167 4.86955
902 2 1.78592 1.57866 3.19839 8.38861 -8.81272 -3.16639
965 1 3.43631 3.3979 3.37623 -1.29625 -3.15806 -2.77282
3 1 -0.140029 1.37226 1.3874 -8.2863 -0.624003 -3.55359
65 1 3.58299 3.35842 -0.125096 -2.75892 0.0209354 3.84191
905 3 3.58283 -0.10866 3.24067 -4.97594 6.46705 1.43623
2 3 1.64289 1.37294 -0.191596 2.18128 3.24888 4.37286
11 3 6.87621 1.82127 1.48729 -0.240397 1.45926 -5.58906
68 1 5.28423 3.64648 1.70598 -1.76412 -1.59562 -3.30504
906 2 5.06932 1.77196 3.55069 1.64414 -2.75399 3.63084
969 3 6.92583 3.40526 3.37177 -4.52264 -4.7354 -0.340897
8 3 5.13756 -0.11057 1.53608 -0.284425 0.216771 -0.17934
909 2 6.94789 -0.129535 3.39184 3.09644 -4.16016 0.326295
12 3 8.68263 0.0363927 1.33418 1.57433 6.38929 -1.10098
6 3 5.10471 1.56622 -0.190893 -4.33625 -0.140346 2.22256
72 1 9.01749 3.11367 1.53817 6.3915 -0.873967 0.309021
910 3 9.02126 1.48092 3.53758 -2.10988 2.19578 -2.18332
15 2 10.666 1.51842 1.55284 4.49511 1.38534 0.922849
76 3 12.3137 3.04895 1.55643 7.81399 -1.00731 -2.59746
914 1 12.5273 1.48416 3.5047 -2.52147 5.37353 1.6178
973 3 10.6545 3.36128 3.60541 1.2722 -4.77616 -0.415294
73 1 10.6339 3.35868 -0.0907576 -3.10626 -2.39983 1.93503
19 3 14.2508 1.41112 1.49304 0.733151 0.766513 2.09295
80 3 16.0489 3.15286 1.53487 -2.0281 -3.70537 1.62253
918 3 15.8587 1.67268 3.34583 2.41406 -2.10933 -2.00363
977 1 14.2836 3.45189 3.24112 -0.762516 -2.52703 -0.955012
981 2 17.8766 3.37811 3.11548 -6.60107 -3.99721 -1.97219
23 1 17.9611 1.17665 1.63093 -2.26048 -2.78217 3.16114
27 3 21.3096 1.34886 1.38939 -1.4131 -2.78268 -4.06964
84 3 19.6326 2.98299 1.29698 2.44857 1.48147 1.98105
922 2 19.5469 1.35326 3.17996 9.39124 1.5081 1.93942
985 1 21.3344 3.18505 3.29417 5.84143 2.94788 -1.56548
81 3 17.9083 3.09247 -0.00578916 -5.7253 -1.96619 2.2132
31 1 24.748 1.51872 1.5143 1.55165 3.49297 -0.726311
88 2 22.8851 3.21354 1.49911 -0.197593 -1.63973 -4.91872
926 3 22.9024 1.39671 3.28597 3.26949 -1.45446 -8.40346
989 3 24.8618 3.19416 3.48717 -3.81559 -4.78566 3.99411
92 3 26.7247 3.48373 1.76385 7.96692 3.27016 -0.349338
930 2 26.7624 1.38474 3.26735 3.15339 -3.41147 -6.7087
89 1 25.0749 3.18595 -0.102298 -1.61735 -6.90262 0.959862
929 2 25.1347 -0.0230927 3.25954 1.45954 4.91481 0.261008
26 2 23.1694 1.36052 -0.109901 1.99627 4.2656 6.53126
67 2 3.35887 5.06046 1.5631 7.27791 7.10024 7.0037
124 3 1.40967 6.81408 1.80239 1.15364 -0.854726 3.3215
962 1 1.46523 5.09979 3.36485 -0.783092 4.01231 -2.86386
1025 2 3.22069 6.85676 3.5992 -1.12881 -8.00705 -0.186402
1022 1 1.62533 8.65163 3.41546 1.1607 5.60673 -3.67962
127 1 3.21962 8.58023 1.59577 2.64973 -0.486256 0.691171
121 1 0.136872 6.87363 -0.0888098 1.27509 -3.45072 0.33582
63 2 -0.132948 5.1008 1.45614 6.18877 0.495924 4.08526
125 1 3.22613 6.7561 -0.189019 2.85928 -0.0467574 3.7274
71 2 6.93094 5.1619 1.66908 -0.689679 -6.37861 2.70202
128 1 5.15538 7.04532 1.66592 3.07886 0.510846 1.19948
966 1 5.13325 5.43602 3.58389 7.85645 -1.00137 3.94065
1029 2 7.02254 7.08064 3.25141 -6.63826 1.27866 6.86208
131 1 6.78351 8.62267 1.44015 -1.10445 2.30541 -1.83404
1026 2 5.19543 8.66689 3.58528 -4.3285 5.49553 3.8929
126 2 4.68779 8.53833 -0.152738 -4.56827 1.33933 -8.89097
70 1 8.76696 5.05261 0.0348186 3.54217 1.14972 -3.64659
66 2 5.26524 5.4288 -0.151754 1.68932 3.11755 -3.02366
132 3 8.6582 7.05727 1.54352 1.12469 9.52904 -2.29247
970 1 8.87464 4.87437 3.31217 4.4053 2.76499 4.65513
1030 1 8.93328 8.68769 3.27296 -0.745758 3.49257 -1.19511
75 2 10.6029 5.2001 1.45653 0.877668 4.13936 0.346223
136 1 12.3609 6.94595 1.48853 6.3825 -0.377492 -3.06381
974 3 12.2889 4.97579 3.07888 5.00441 -2.30877 -4.75274
1033 1 10.5062 6.82074 3.28666 -2.18205 -3.80356 -0.33314
135 2 10.6299 8.61205 1.57438 -10.2289 3.1253 3.97505
1034 1 12.2683 8.59985 3.08627 -3.6236 -3.75487 -5.92759
79 2 14.1174 4.84597 1.40162 -7.33934 -3.48254 -1.65619
140 1 15.8259 6.97702 1.64924 -0.965967 -2.51115 -2.65131
978 3 16.1039 5.14619 3.29016 -4.32276 2.29283 7.41444
1037 2 14.0888 6.68279 3.23842 1.43744 2.68046 -2.61295
137 1 14.2976 6.8509 -0.0631993 -1.50098 -3.63252 -4.29582
139 2 14.3378 8.69614 1.57677 5.55716 -0.22245 1.31733
1038 1 16.0017 8.64991 3.55824 2.15639 -7.14483 -3.88249
141 2 17.9847 6.92142 0.0886872 4.8761 7.50314 -2.16859
83 1 17.8548 4.9966 1.40106 3.46385 -2.75374 1.30732
1041 2 17.8878 6.85223 3.3153 -0.432266 -2.20279 1.80429
87 3 21.3854 4.92092 1.62455 -2.30773 3.13537 0.116535
144 1 19.7195 6.92906 1.69503 3.11067 -2.23079 -4.19337
982 3 19.5949 5.0014 3.55228 2.09364 -0.882425 2.2962
1045 2 21.314 6.91938 3.54989 0.996702 3.54774 0.39178
147 2 21.2805 8.77061 1.58086 3.94492 1.03602 1.97553
145 1 21.6734 6.94372 -0.187724 -1.63403 5.88253 -6.63068
143 1 17.7997 8.61682 1.53676 -1.1171 4.57643 -2.50441
82 2 19.681 5.11708 -0.0406554 -3.22348 -1.6861 1.64586
1042 1 19.539 8.5551 3.70183 -1.06928 -5.93581 -3.98839
91 2 24.9535 4.9336 1.44228 3.85606 1.91109 5.3708
148 1 23.1154 6.97484 1.57413 5.8796 -3.15543 4.80315
986 3 23.1907 4.98099 3.41268 3.45557 0.589634 4.37993
1049 2 24.6945 6.87684 3.30385 -2.57402 -0.063967 -2.46463
990 3 26.6297 5.12397 3.46609 3.53703 -3.60663 1.36872
149 3 24.8635 6.8092 -0.0675309 5.23576 -1.10086 -4.1206
152 3 26.4863 6.92162 1.70045 3.14871 1.27666 -0.731174
146 2 23.1238 8.7178 -0.105114 4.68729 0.355558 0.574321
90 3 26.6985 5.40493 -0.0833031 -2.88669 -1.60913 2.12018
184 3 1.53282 10.4027 1.63599 1.18334 -4.44944 -2.3386
187 2 3.85773 12.4444 1.657 6.50074 10.4976 5.91582
1082 1 1.83615 12.4622 3.39664 0.957462 -1.63692 0.397644
1085 1 3.47757 10.4847 3.28766 -2.18432 8.14091 2.7852
183 2 -0.110302 12.536 1.89158 1.99088 0.716111 2.80281
1081 3 -0.0621001 10.7666 3.3771 -2.23947 -3.36578 6.63742
185 2 3.30749 10.4523 -0.0363076 -1.37537 -2.62667 0.804593
182 3 1.5399 12.3722 -0.119862 0.0165301 4.73326 3.2742
181 2 -0.188821 10.5288 -0.124947 0.444532 -0.244717 2.58794
188 1 5.25047 10.6124 1.62858 -4.49509 0.892439 -0.723859
191 3 7.14701 12.2794 1.34282 -1.14569 3.43264 4.03726
1086 3 5.58715 12.3055 3.31397 0.182452 -1.39932 1.64043
1089 2 7.16551 10.0741 3.08139 -3.35121 2.74697 2.10112
186 1 5.21474 12.3041 -0.129338 2.46213 4.53416 -0.296847
192 3 8.65022 10.3617 1.38663 -3.14795 -1.3823 -0.392157
1090 3 8.79482 12.0791 3.29609 -0.787679 -8.5135 4.28351
195 3 10.6122 12.192 1.50026 5.70585 5.44247 1.6343
196 2 12.4718 10.6114 1.5408 3.72228 7.59763 5.36382
1093 3 10.5617 10.4092 3.34706 2.81982 1.5127 -2.37359
1094 1 12.3309 12.0882 3.53837 -1.51632 -1.75742 -3.49449
193 1 10.6231 10.2454 -0.152335 -1.76586 1.44513 1.92084
199 1 14.3887 12.1537 1.57197 -0.610078 3.63196 -3.03656
200 1 16.1546 10.3398 1.42929 -3.43425 -3.33834 0.222721
1097 1 14.2506 10.2358 3.26565 -2.22284 -8.55882 -1.32197
1098 2 16.2016 12.1455 3.2834 3.01779 3.06329 -1.98274
1101 1 17.795 10.3323 3.5417 1.93159 1.59325 7.90376
203 3 17.8399 12.2115 1.63866 1.3436 0.264322 1.66485
204 2 19.4545 10.2785 1.47222 -3.83717 -1.01301 -1.16058
207 1 21.121 12.1923 1.54244 -0.622335 3.42317 1.01309
1102 1 19.2803 12.2563 3.28667 -0.308413 4.09505 -8.33343
1105 1 21.1195 10.5091 3.40307 -1.96239 -2.86699 1.95586
1046 3 23.0062 8.79117 3.36107 2.10263 3.74462 -3.33918
151 2 24.8596 8.94038 1.81271 1.17539 -8.79807 3.98333
1050 1 26.6744 8.92222 3.18228 3.79453 -2.99546 -0.576283
208 3 22.9287 10.7901 1.34404 1.36525 5.22448 2.97614
211 3 24.7266 12.4423 1.5781 -2.58665 -0.110116 -0.666107
1106 2 22.8685 12.2628 3.29736 -2.22717 -1.99067 0.130683
1109 2 25.0455 10.6248 3.65383 2.89993 3.99105 0.420955
212 1 26.3775 10.7197 1.49653 -0.138214 -4.97944 0.38566
244 1 1.87732 14.0885 1.54375 -0.212432 -0.410463 7.20663
247 1 3.41906 15.8915 1.8876 1.84364 -2.5245 2.59138
1142 1 1.47902 15.8212 3.26512 6.39694 -0.397335 -5.08383
1145 2 3.48835 14.1009 3.58205 -4.02881 -4.10383 -0.0704291
304 2 1.74317 17.5915 1.72808 5.40404 4.54082 -0.408452
243 2 0.0591887 15.7307 1.50159 1.1316 7.00801 5.17811
245 2 3.59094 14.0231 -0.0018779 0.0965288 -8.48388 -1.6158
242 1 1.72529 15.753 -0.0654066 -3.30582 -0.132722 4.06455
248 3 5.41576 14.0347 1.52478 0.622884 -1.33824 -1.95545
251 3 7.27158 15.6712 1.71673 -5.70574 -3.43389 0.59757
1146 1 5.2045 15.8846 3.43941 3.43624 -0.468397 7.11682
1149 2 7.12266 14.0813 3.43086 3.12946 -1.84746 -10.3233
308 2 5.22508 17.5192 1.56892 0.368355 -2.61553 0.0599836
1209 3 7.00541 17.4575 3.49716 -3.98022 0.586403 0.595793
249 3 6.91905 14.0014 -0.149616 -2.6926 0.399644 -0.0458538
312 1 8.81588 17.6293 1.63631 4.41456 -4.46347 5.13412
252 3 8.98085 13.8579 1.42494 1.09028 -0.432314 -2.18953
1150 2 9.03472 15.8431 3.40036 -2.11945 1.5911 4.01698
255 1 10.602 15.9033 1.70235 2.92921 6.35654 4.30709
256 2 12.5986 14.141 1.56867 2.74588 1.98787 3.0005
1153 3 10.6683 14.0207 3.33556 -0.411249 -5.0476 1.91735
1154 3 12.2345 15.5229 3.44865 3.3637 -2.61316 -3.62653
254 1 12.4668 16.0341 -0.1751 4.25742 -3.68978 -4.08461
316 2 12.2488 17.5344 1.86675 -3.64992 -3.35325 -2.62168
253 3 10.8941 14.2389 -0.0197568 4.38767 -5.0664 0.563112
1213 1 10.4009 17.6894 3.41549 -1.61981 -4.83558 -0.737527
259 3 14.1488 15.8232 1.94278 7.78203 -5.92806 -5.7589
260 3 15.9571 14.1012 1.59992 1.93631 7.7157 -3.48567
1157 3 14.3683 13.8618 3.54574 4.23978 0.42733 1.44913
1158 2 16.0942 16.1645 3.3257 5.86725 6.4464 -2.33602
1217 1 14.3099 17.7145 3.64013 3.76503 2.19076 -4.79732
263 3 17.6719 15.9673 1.55676 -2.76966 -1.87048 -0.68876
317 3 14.2244 17.6089 0.219407 -0.325992 -2.64511 2.46623
257 2 14.1374 13.8932 -0.00521324 6.09288 6.73957 7.65723
1161 1 17.8818 14.2969 3.51546 3.41211 2.01315 -3.21259
264 3 19.4516 14.3704 1.57573 3.25474 3.35037 -0.886303
267 3 21.2846 15.9179 1.59055 -1.07603 11.1471 1.46922
1162 2 19.5759 16.0546 3.14116 -0.77245 -1.45837 1.31192
1165 3 21.4326 14.0059 3.23604 2.73697 1.99654 -0.482112
324 3 19.5224 17.618 1.54024 0.805083 -0.613231 1.07808
268 2 23.034 14.0736 1.59858 3.62393 1.50291 4.71744
271 3 24.8367 15.71 1.29085 2.16971 -4.34677 -9.63674
1166 3 23.0147 15.8956 3.26376 -8.54399 1.50166 1.07392
1169 3 24.8786 14.2006 3.46423 -3.22144 -1.0893 -1.50163
1170 3 26.4836 15.9942 3.45995 -2.1601 1.52215 1.95667
332 2 26.7145 17.3845 1.56604 1.49647 -0.351481 -5.50572
1205 1 3.51478 17.7692 3.48722 -1.12973 -4.6328 -8.18903
307 1 3.48056 19.3489 1.74726 0.465558 -1.94777 1.42954
364 2 1.78934 21.0827 1.57957 0.484045 -0.355478 -0.995511
1202 2 1.59805 19.2626 3.29237 -3.19803 1.98697 2.07523
1265 3 3.49614 21.2281 3.55119 3.10242 -3.05103 -1.69955
365 1 3.45605 21.2785 -0.0877287 -0.811493 -3.97163 -3.07458
302 1 1.58934 19.4554 -0.155857 2.72044 -0.309714 -4.66249
1261 1 -0.204221 21.175 3.33357 -0.76662 -5.5633 0.449243
311 1 7.05855 19.4493 1.89566 6.89734 -2.41089 6.25969
368 2 5.20747 21.1662 1.56558 1.15605 -14.803 -2.12549
1206 2 5.47323 19.4893 3.41899 -0.0877225 5.82242 1.33783
1269 1 7.00697 21.2822 3.48939 -3.68447 0.567526 -1.30648
372 2 8.77501 21.2431 1.57219 0.995327 1.59516 0.949406
1210 2 8.72605 19.4773 3.62679 -0.374514 2.26462 -4.14942
310 2 8.6608 19.1926 0.144888 -7.08114 2.45788 -1.6466
315 1 10.3245 19.5039 1.60474 2.65489 1.71268 -5.52538
376 2 12.2661 21.3901 1.47161 3.86188 3.52255 5.2081
1214 2 12.2162 19.3898 3.32127 -4.80784 -4.41556 0.91597
1273 3 10.6602 21.1137 3.33089 0.381799 -0.62795 4.67729
314 2 12.57 19.2826 -0.0812409 -1.78123 -4.18841 1.71477
320 2 16.0112 17.8116 1.57448 -1.42239 -1.22528 -1.13075
319 1 14.006 19.3555 1.75746 -1.99838 6.60328 -0.440905
380 2 15.8144 21.2562 1.56734 -1.28536 3.9417 -1.69912
1218 2 15.978 19.4179 3.36601 8.20554 4.32267 3.05279
1277 1 14.3159 21.4381 3.31072 2.83333 5.5261 -0.209266
377 1 14.095 21.3172 -0.142723 0.556332 -1.36812 7.83849
318 1 15.717 19.3862 -0.195985 0.765361 -3.58795 6.12206
1221 1 17.7917 17.9904 3.39492 6.0946 -1.86444 3.20608
323 1 17.7822 19.6503 1.54125 0.0708619 4.15082 4.3948
1225 3 21.1645 17.7853 3.29821 3.82015 -2.82819 -4.67569
1281 2 17.7794 21.3814 3.47679 -5.14714 3.57256 1.73454
327 3 21.2682 19.6433 1.70111 -0.656338 1.52252 0.41036
384 2 19.8237 21.5246 1.28873 2.85059 3.4256 0.178365
1222 3 19.6053 19.7046 3.18569 -5.75391 -0.015824 2.28967
1285 2 21.2189 21.3223 3.27546 -1.07404 6.91793 -1.21698
329 2 24.9148 17.7816 -0.207573 -1.60977 3.97788 -0.306339
1229 3 24.8956 17.8844 3.18972 5.96029 6.45651 2.4234
328 3 22.9112 17.8701 1.50724 -5.97381 0.245516 0.472009
331 3 24.8758 19.4512 1.4691 1.51438 -2.27022 -1.25742
388 3 23.2287 21.558 1.41353 2.35682 -1.36094 1.3763
1226 3 22.9851 19.7535 3.16632 -2.23141 -1.0633 3.57492
1289 3 24.969 21.3105 3.28061 10.6031 0.281142 -2.88662
1230 3 26.7434 19.2682 3.04893 0.208518 2.54514 1.29476
392 3 26.6282 21.4806 1.34252 -0.280004 1.42239 -3.65191
326 3 23.0763 19.6462 -0.0961903 1.64163 3.06465 -1.49369
330 1 26.6286 19.2187 -0.158535 -2.80998 -5.85876 9.55289
423 2 -0.130996 26.5486 1.60427 -2.92884 1.81319 1.92569
1322 1 1.44823 26.3032 3.22085 2.47228 -2.85576 -2.12739
367 2 3.37417 23.076 1.5965 -0.488392 -1.45581 1.29692
424 1 1.60958 24.8329 1.41052 -4.29272 -4.99855 -2.60165
1262 1 1.61669 23.0361 3.12214 4.91359 -3.17977 -4.03874
1325 2 3.39886 24.8423 3.22377 2.89887 -4.97449 -0.996431
427 2 3.48062 26.5874 1.54771 0.789772 -1.0385 0.052879
362 2 1.8185 23.053 -0.146683 -2.25296 -3.18764 -0.931204
363 2 -0.0127603 22.9942 1.45936 6.85221 2.08451 -1.71595
422 2 1.64454 26.6191 -0.18399 -2.85717 3.48417 -0.901367
371 3 7.15844 23.0935 1.6879 -0.986701 -6.28133 -4.26502
428 3 5.05732 24.8833 1.58238 -1.10661 -2.64309 0.424324
1266 1 5.1501 23.0892 3.27537 2.66124 -2.98094 0.476982
1329 2 6.93978 24.6869 3.40906 -1.73903 -11.1579 3.49383
431 2 7.11312 26.7465 1.57736 11.3533 2.79113 0.872672
430 3 8.75951 26.4505 -0.0251997 4.6332 4.278 2.1916
366 3 5.39033 22.9649 -0.00369174 5.76637 -3.30479 1.17568
1330 1 8.64966 26.6129 3.43829 -2.16222 -2.2782 7.51041
429 1 6.89404 24.7069 -0.0696677 -5.37003 -4.72653 3.99039
432 3 9.02166 24.8333 1.82226 0.0677401 3.23689 -2.03194
1270 3 8.91654 22.9533 3.65705 -1.43288 2.27197 -3.15226
375 1 10.3331 22.9996 1.69803 0.216011 -0.997961 3.24759
436 1 12.2213 24.9652 1.15724 1.46614 4.88079 0.416759
1274 2 12.3863 23.2497 3.22149 0.595646 3.45443 -2.91028
1333 2 10.7248 24.7617 3.35397 5.48076 -4.68554 2.84748
1334 1 11.9903 26.5787 3.37228 1.35523 -1.72202 2.98862
379 2 14.0303 23.0145 1.61894 -4.02923 1.58091 0.711553
440 1 15.7841 24.9483 1.61991 0.532121 -0.979858 4.40886
1278 2 16.2148 23.2061 3.39317 0.913607 -8.19486 -4.50382
1337 3 14.0234 25.052 3.12612 -4.03876 2.76545 -1.12797
383 1 17.6527 23.0329 1.37686 -0.311338 3.08218 -2.35311
441 2 17.4795 25.0975 -0.135758 -10.9258 -0.442974 -2.53868
1341 2 17.7115 25.0309 3.24219 -8.25725 -9.66932 -5.57444
443 1 17.6653 26.7551 1.58556 1.03591 -0.55728 -0.627139
442 3 19.4977 26.7432 -0.15496 5.12805 1.04509 -5.74307
387 1 21.3079 23.3687 1.37093 3.00175 -4.50544 -0.052116
444 2 19.6224 25.1723 1.56588 -4.8286 2.84911 0.721292
1282 1 19.6104 22.906 3.22767 -5.35322 -0.963717 -1.69224
1345 3 21.4211 25.0483 3.22782 4.11168 1.57371 -1.30322
382 2 19.4646 23.3078 -0.201704 -2.72874 -1.42609 2.76622
451 1 25.0268 26.7199 1.35379 -2.04065 5.81768 2.17327
391 3 24.8127 23.3645 1.5375 4.92133 -7.42574 3.51798
448 2 23.0512 25.1463 1.21989 -5.4847 -1.31739 -1.10072
1286 3 23.0062 23.356 3.08596 3.44355 -9.74378 -1.40548
1349 3 24.9031 25.0955 3.1329 3.07012 2.72571 -2.74696
1290 2 26.7405 23.1357 3.22293 1.94806 -5.70039 -0.247919
1346 2 23.2858 26.7184 3.26204 1.19593 -3.37187 4.39676
1804 3 1.51029 -0.0948535 8.75598 11.2081 7.27001 2.27965
904 3 1.71408 -0.0572049 5.14538 1.7311 4.4846 -2.40206
907 1 3.43942 1.76348 5.15232 1.82559 -0.593867 4.30829
964 2 1.41615 3.25127 5.11956 -3.49943 5.34828 -0.723058
1802 3 1.37386 1.62408 6.80577 0.0959483 -5.38538 -8.91933
1865 3 3.09921 3.41317 7.07162 1.12025 4.65711 6.64092
1807 3 3.31989 1.53149 8.70766 3.59644 0.548925 -1.0779
911 1 6.79242 1.68274 5.11267 -1.08947 0.355114 2.73496
968 3 4.95407 3.51119 5.38017 -4.63787 6.57735 -2.73878
1806 2 5.06679 1.54367 6.91848 -7.99034 3.5191 1.68237
1869 3 6.74566 3.47591 6.87698 0.678889 0.671032 -8.00034
1811 1 7.01302 1.54603 8.73292 1.03842 0.014871 5.79031
908 1 5.29405 -0.211734 5.17928 -4.52666 -2.28802 -3.59456
1872 2 8.71238 3.14937 8.54558 1.34728 2.37153 -0.0720943
1810 2 8.50582 1.39984 6.99767 -0.757743 3.49663 0.69406
972 2 8.66687 3.29643 5.32617 -3.01405 0.512397 -5.00587
1868 3 5.2049 3.31862 8.74405 4.63337 5.82729 -5.02568
915 1 10.7646 1.48731 5.1502 7.83337 1.6015 0.519461
976 2 12.4027 3.22118 5.10026 -5.33553 -1.28628 -7.7648
1814 2 12.2192 1.36963 6.92378 -5.97179 9.67454 0.229647
1873 1 10.4477 3.3401 6.8352 -1.6327 -5.16001 -5.98918
1876 2 12.3747 3.15366 8.71866 0.813412 -1.11922 6.27963
1815 1 10.2134 1.48078 8.43368 0.633299 0.222879 -0.287214
1813 1 10.5734 -0.192069 7.08003 -2.10736 0.399967 -5.87468
1817 3 14.0181 -0.159181 6.87982 4.49878 3.12493 -4.6421
1821 2 17.7019 -0.195887 6.93432 1.06769 -2.9541 -1.58815
919 3 14.1927 1.39394 5.2088 -4.45523 0.624131 -8.67145
980 1 16.0036 3.6345 5.2217 5.13525 -0.740692 -0.584605
1818 2 16.1024 1.29168 6.89008 4.79061 -7.47125 -0.161428
1877 1 14.1248 3.25132 6.90614 -5.44934 -3.27266 3.14467
923 2 17.6726 1.76001 4.93011 1.73592 -0.971193 0.00120181
1819 1 14.076 1.42901 8.74797 -4.63875 -4.3332 0.311469
1881 1 17.8079 3.21435 6.9857 1.72056 -5.00043 2.1982
1825 3 21.6151 0.0895435 7.03919 1.42056 0.522997 5.41995
927 3 21.311 1.31093 5.23259 -1.27196 3.31469 1.44903
984 1 19.4638 3.10741 5.04745 1.75532 4.00354 2.47891
1822 2 19.5245 1.39445 7.18265 1.81537 -6.47586 3.6145
1885 3 21.3018 3.10771 6.99835 0.3062 1.16613 3.06511
1827 3 21.2542 1.57961 8.76389 4.11974 -2.62929 -1.17711
931 3 24.8474 1.32356 5.01852 3.26166 -3.35675 3.5859
988 3 23.3181 3.14526 5.2637 5.70247 1.10244 -1.27674
1826 3 23.398 1.35667 6.78778 -1.053 -0.244943 1.45185
1889 3 24.8297 3.40428 6.97098 -2.6199 -2.14402 -0.644911
1888 3 23.1695 3.27013 8.7762 4.09184 -2.08103 5.61045
992 2 26.7506 3.18085 5.11637 2.21177 3.76717 -1.62014
1892 3 26.6994 3.15232 8.67199 -3.99512 2.56302 4.05871
1831 2 24.9198 1.52794 8.74029 -7.19504 7.67676 -0.714248
1828 3 23.1393 -0.0216336 8.72856 0.367453 -0.847814 -5.2153
967 2 3.19223 5.23423 5.15157 0.764045 -2.22389 -1.6245
1024 1 1.35166 6.92995 5.2273 -0.887098 0.364972 1.12186
1862 3 1.50742 5.03187 7.14152 -2.99531 -1.68217 3.20588
1925 2 3.2502 6.94531 6.8237 -0.382658 0.794959 3.65471
1924 2 1.57209 7.18884 8.64586 -2.3601 -4.82231 3.02936
1027 1 3.25225 8.66032 5.03168 4.83799 0.770662 -3.61738
1867 3 3.25609 5.27124 8.69658 4.89465 5.19508 -2.07023
971 1 7.14405 5.20859 5.10346 3.31688 -4.45253 0.730438
1028 1 5.341 7.16952 5.2593 0.35715 -0.410957 0.536615
1866 2 5.10549 5.39351 6.68909 3.9285 7.65655 -2.02439
1929 2 7.00169 6.66355 6.82472 0.665305 -3.23658 5.34299
1871 2 7.04722 5.34467 8.72915 -1.98412 -1.72475 2.39449
1928 1 4.93204 7.01661 8.63288 2.79838 -1.75688 -2.00422
1932 1 8.56655 6.99402 8.53445 2.78578 -6.34936 12.1323
1931 3 6.79505 8.67025 8.55277 2.47406 -2.57475 4.7403
1031 3 7.01155 8.7406 5.22346 -1.08596 -5.7905 -2.46807
1930 3 8.64865 8.74854 6.9766 4.34476 -4.62114 -1.34085
1870 1 8.75528 5.05475 7.0548 -4.40498 3.02774 3.29015
1032 2 9.04746 6.99561 5.09684 -8.6918 0.0219918 -5.40398
975 2 10.6555 5.27634 5.13064 6.5495 -2.10081 5.16605
1036 3 12.3058 6.98523 5.00612 1.00157 -6.94203 3.2537
1874 1 12.053 5.22721 7.03345 -0.859296 0.298964 1.27188
1933 3 10.4981 7.05569 6.96348 0.337964 -2.41594 -2.53958
1935 3 10.4142 8.75398 8.49126 -2.16623 5.93289 1.99838
1875 2 10.4188 5.01139 8.50031 -6.02655 1.77939 -5.69342
979 3 13.9766 4.91366 5.22031 1.63428 -3.54903 -0.814935
1040 1 15.8938 6.80738 5.24037 1.60378 8.42501 0.864544
1878 2 15.9761 5.13913 6.80327 -2.68588 -4.38985 -4.26338
1937 3 14.0702 6.88134 6.91795 -1.31086 -3.2421 -5.2657
1938 2 16.2516 8.52679 7.22036 5.53812 3.42767 7.73394
1039 2 14.2101 8.69827 4.96375 -4.65615 -1.84137 -1.8749
1879 1 14.0154 5.02228 8.66559 3.13687 3.144 2.18448
1043 2 17.6468 8.33003 5.2782 0.368258 1.23992 2.32149
1883 1 17.4791 4.9727 8.683 3.57441 1.47019 -2.74874
1941 1 17.8335 6.78521 7.18476 1.30011 1.82627 0.40941
983 2 17.7635 5.10007 5.29271 -5.10695 7.11011 -1.31189
987 2 21.4128 4.8497 5.44244 -5.17757 2.81476 -1.26758
1044 1 19.651 6.72074 5.17673 -2.21736 0.232039 2.37028
1882 2 19.5927 4.85063 7.12213 2.0203 -6.64135 -1.98892
1945 1 21.1197 6.748 6.94567 -1.00599 -1.64574 -7.88983
1942 1 19.5817 8.61088 7.05675 -0.914856 0.221084 3.63652
1947 2 21.2659 8.54772 8.66477 8.14208 -0.253817 -1.15869
1887 1 21.2631 4.9995 8.75367 -2.77297 -3.33134 0.0221527
991 1 24.9123 5.06687 5.03788 -3.29018 -0.165222 3.65886
1048 1 23.0899 6.68967 5.33464 2.91945 2.18038 5.80627
1886 2 23.0737 4.97844 7.01838 -2.65186 1.94311 -7.23299
1949 2 24.8943 7.16339 6.63438 -8.52437 1.24973 -1.88174
1946 1 22.8784 8.59268 7.08462 -10.2024 -1.30739 1.03173
1052 3 26.6466 7.1384 4.91878 -0.712678 4.97702 -1.72481
1948 2 23.0051 6.81383 8.65883 -0.650072 2.24385 4.08675
1951 2 25.0465 8.48935 8.73583 -2.1502 -3.07647 -2.22409
1950 1 26.6357 8.54206 6.84406 3.19722 -3.74723 2.03408
1891 3 24.796 5.17269 8.66183 2.8147 -1.59228 -4.55212
1890 2 26.5572 5.2618 6.92902 -6.73853 3.35645 2.64106
1927 2 3.55074 8.81842 8.64759 -7.68185 1.3676 4.8909
1023 1 -0.204836 8.89718 5.18452 -1.88958 -0.0591128 1.56543
1922 3 1.68112 8.93978 7.01152 -7.73151 -4.86122 -8.2107
1084 2 1.65855 10.4945 5.08585 -2.64412 -8.79831 9.01687
1087 3 3.25432 12.4682 5.28413 8.44222 3.59475 -4.30504
1982 1 1.57724 12.1734 7.19841 4.01095 -1.34841 4.31096
1985 3 3.42689 10.5744 6.89914 -1.06142 2.76297 0.222053
1083 1 -0.111806 12.2149 5.32558 3.72016 -0.870569 8.7983
1926 3 5.29456 8.85567 6.80372 -5.45745 1.61074 -4.44388
1088 3 4.88594 10.7079 5.07248 2.69334 2.13314 -1.39726
1091 3 6.98883 12.1231 5.09117 -0.82377 -3.13307 1.16366
1986 1 5.19695 12.5147 6.79321 9.99586 4.51725 0.061849
1989 2 7.01146 10.5969 7.04906 -0.297294 4.56166 -1.96271
1990 1 8.64532 12.3073 7.16374 -1.05108 0.361968 -1.02423
1988 3 5.14081 10.8199 8.66245 0.581546 -1.54435 -2.13427
1992 3 8.69082 10.4136 8.65609 5.67401 -2.23137 -3.25463
1934 3 12.3676 8.81908 7.17497 2.88544 3.27075 1.06289
1035 3 10.5228 8.79873 5.29073 -1.59911 -0.245709 8.53422
1092 3 8.8567 10.6609 5.31299 -0.632208 1.48178 -3.42692
1095 2 10.4625 12.395 5.28872 7.40008 3.18986 -8.43742
1096 3 12.3656 10.2819 5.09294 0.55324 -5.34882 -3.27294
1993 3 10.5431 10.6368 6.95981 -0.346891 -0.0950351 -5.65333
1994 3 12.4916 12.2029 6.93457 4.76021 1.18103 -0.601733
1996 2 12.3722 10.7356 8.77413 -5.83353 0.713549 2.77156
1995 1 10.4298 12.3704 8.67604 1.60151 -2.09428 -3.92156
1099 2 14.2031 12.05 5.38131 -1.98059 4.18966 -0.220247
1100 3 15.946 10.5428 5.31356 1.8683 -2.45321 5.24647
1997 3 14.2791 10.4085 7.07944 2.99824 -1.06181 -3.58767
1998 1 16.1164 12.0957 7.15189 -0.165733 -2.823 4.52144
2001 2 17.9801 10.3716 7.38186 -4.22436 -5.91003 5.91528
1047 2 21.2261 8.786 5.33583 2.89978 -1.6673 -4.55918
1103 2 17.9158 12.2592 5.10214 -4.94044 5.50706 -4.89219
1104 1 19.4189 10.46 5.33112 -6.01795 0.281471 -3.884
1107 2 21.2143 12.1427 5.01899 -2.89765 3.0095 -2.92849
2002 1 19.4373 12.1982 7.31606 -2.97379 4.11886 -4.03854
2005 1 21.2306 10.558 7.06128 2.45438 2.4664 -4.68482
1051 1 24.944 8.78415 5.10324 -1.72446 0.177306 2.84148
1108 1 23.0488 10.6951 5.19003 0.767834 -1.53766 2.72836
1111 1 24.9969 12.241 5.17563 0.633912 2.05046 -1.8247
2006 2 23.2195 12.3298 7.05074 2.89721 -1.06764 0.533026
2009 2 24.9591 10.3156 6.75995 -0.373348 0.131184 2.43301
2011 1 24.8837 12.0595 8.50923 2.53939 -0.531509 -2.41516
2008 1 23.2087 10.3927 8.55546 -0.742204 0.16559 7.23946
2010 3 26.6857 12.5604 6.84472 -4.34906 0.0193172 4.20802
1144 1 1.64175 14.3099 5.32375 6.66875 0.758556 0.121356
1147 2 3.39864 15.8777 5.0606 -0.262027 -3.00461 4.09575
2042 3 1.50008 16.1641 7.04461 -0.654634 -1.64161 -5.25075
2045 3 3.53072 14.2768 7.08018 4.1606 0.470331 -1.35177
1204 3 1.49071 17.6448 5.09092 -3.9465 3.91138 2.9952
2044 1 1.54388 14.215 8.75529 1.24388 -6.9203 -0.404525
1143 1 -0.0528333 15.813 5.15483 1.22562 1.18355 -3.92891
1148 1 5.2825 14.0362 5.19797 6.13513 5.74188 -1.89425
1151 2 6.77422 15.8416 5.29636 -8.4152 -2.55745 3.05556
2046 3 5.20735 15.8773 7.08857 2.73964 7.61868 -0.478121
2049 2 7.15157 14.3085 6.85549 0.734384 -1.61846 -3.18755
2109 1 7.0056 17.4779 6.99736 -5.54016 1.33794 1.01561
1208 1 5.15421 17.5526 5.25764 4.36832 -0.516602 1.72392
2048 2 5.26502 14.104 8.68599 -1.43125 5.05671 -2.98757
1152 1 8.60065 14.2357 5.07595 5.99286 1.75903 3.33147
2112 2 8.59577 17.7145 8.73942 -0.886779 5.64468 2.6894
2050 1 8.93573 15.7965 6.92766 -0.371257 -0.0306339 0.32714
1155 2 10.7536 15.78 5.18934 5.00921 -4.56283 0.0836214
1156 1 12.3463 13.7842 5.1393 -2.28885 0.741292 2.29479
2053 2 10.6834 13.9112 7.01255 -2.47479 2.34816 4.13375
2054 3 12.5509 15.7902 6.83961 -2.48364 -2.04343 1.163
2056 2 12.2837 14.163 8.68568 -1.75705 0.946018 -2.64738
2055 3 10.5161 16.167 8.73272 1.1308 -5.39639 3.96474
1212 3 8.99662 17.458 5.3311 -4.73397 3.38933 -5.88212
2116 2 12.61 17.6629 8.71996 7.96339 2.26198 -1.68333
1216 1 12.4662 17.7209 5.13031 8.61372 -7.96632 -3.41627
1159 2 14.368 15.7035 5.2133 -1.16433 0.80189 5.99716
1160 1 16.1096 14.0529 4.96011 2.96981 2.28396 -0.454699
2057 2 14.5998 14.0302 7.17502 3.98868 2.95885 -0.302864
2058 1 16.0642 15.9072 6.93919 -2.20595 -0.629975 4.56107
2117 2 14.3613 17.6052 7.10368 1.88186 1.75478 0.597254
2059 1 14.2835 15.632 8.75416 10.4845 1.24346 2.45672
2120 1 16.1766 17.752 8.42664 4.78288 9.70547 10.3459
2061 2 17.6656 14.0957 6.85182 3.60084 1.73356 -2.27511
1220 3 16.1153 17.6046 5.28073 0.962177 1.39322 5.20153
2063 1 17.987 16.0921 8.7149 0.18227 2.45559 2.90309
1163 3 17.874 15.9782 5.23065 -2.01711 -1.98749 -1.55899
1164 2 19.6888 13.9395 5.32758 -1.17995 6.81247 -2.08937
1167 3 21.3657 16.0467 4.99356 0.52647 -2.80945 -0.614306
2062 1 19.5339 16.0579 6.91343 1.88459 4.11455 1.29666
2065 1 21.2754 14.2328 7.04898 -1.3262 3.11218 2.60021
2067 2 21.6052 15.8745 8.69938 -1.8569 1.5838 3.87703
2064 2 19.6363 14.2738 8.6523 -2.24465 -0.399624 -5.16698
1168 3 22.95 13.9133 5.17711 4.49835 -1.90792 4.34886
1171 2 24.6499 15.9592 5.11452 2.40709 -0.000927065 0.592359
2066 1 23.0351 16.0097 6.93195 3.70119 3.4962 1.11011
2069 3 24.8532 14.2285 6.86879 4.87389 3.65339 -0.305593
2072 3 26.6809 14.255 8.7397 3.23124 0.20665 1.16376
2070 3 26.7099 16.0919 6.76498 8.05129 -2.48385 1.52063
1172 2 26.6738 14.1235 4.93933 -7.04127 6.98337 -4.18611
2105 3 3.3965 17.7708 6.93467 3.61028 -3.0195 0.453672
1207 2 3.48223 19.533 5.33571 1.62947 6.64176 2.29675
1264 1 1.626 21.3479 5.09066 1.37806 0.589072 0.98711
2102 1 1.75026 19.7162 6.90973 0.457326 1.27272 -2.96823
2165 2 3.59331 21.4266 6.90098 -1.76567 5.70274 -7.89895
1203 3 -0.0586701 19.577 5.15802 -6.32215 3.12545 2.88051
2107 2 3.3949 19.7473 8.74074 -1.01169 7.20454 4.44883
2104 1 1.63153 18.039 8.70114 1.46616 2.82256 -4.38277
1211 2 7.09849 19.2589 5.39099 -1.6385 -6.08431 7.82406
1268 2 5.65038 21.2447 5.22039 -1.4213 0.0516766 -5.62091
2106 1 5.31435 19.7879 7.116 -1.80733 -7.02394 -2.4374
2169 2 7.34436 21.4624 6.9145 -3.49902 -2.90504 2.75784
2168 1 5.37628 21.6691 8.74485 -0.221009 -1.24225 4.07405
2110 3 8.66997 19.2774 7.11357 -1.70216 1.52817 4.14496
2113 3 10.8971 17.8726 6.95473 -4.28597 2.26158 1.24907
1272 1 8.88832 21.2364 5.31793 -1.72217 -0.933961 3.45631
1215 2 10.6373 19.7159 5.56661 1.21997 -3.50299 9.31986
1276 3 12.3139 21.313 5.08805 -9.25161 -1.91888 2.20717
2114 3 12.6236 19.4107 7.01946 0.954929 -1.88354 2.60753
2173 3 10.8742 21.4279 6.92791 0.324055 5.88825 -2.01044
1219 2 14.1241 19.6248 5.02923 -1.38201 -1.36013 0.548347
1280 1 16.1215 21.3189 5.11862 -4.72624 -1.29179 -1.86
2118 1 16.1161 19.5085 6.90159 -2.09177 2.70512 -4.99092
2177 2 13.976 21.4632 6.88065 -0.0183989 -5.3497 -1.01163
2119 3 14.4547 19.6521 8.73556 5.62645 1.93821 1.08728
2180 3 16.284 21.0464 8.7276 7.62068 -3.26901 -4.58382
1223 2 17.7567 19.6987 5.18516 -2.50735 5.94003 0.355183
2121 2 18.0451 17.9881 6.81108 1.49775 -5.6225 -5.61023
2181 3 17.8791 21.5914 7.03857 1.32748 7.52764 1.71253
2124 3 19.7505 17.8291 8.66221 -3.06599 -0.458222 -0.694613
1224 2 19.5463 17.8871 4.99783 -5.70537 2.14922 -0.874704
2125 1 21.256 17.8882 6.91097 -6.44569 0.475986 2.60889
1227 2 21.3885 19.5598 5.2257 -3.76253 5.55205 1.32223
1284 1 19.6936 21.5716 5.23244 2.17062 0.408413 -0.351398
2122 1 19.7027 19.7574 7.02211 -2.8226 -2.0153 -0.915001
2185 2 21.565 21.73 7.27691 -6.80912 -0.0336607 -1.90915
2123 2 17.9943 19.6002 8.51198 2.59787 -4.83197 5.15326
2127 1 21.4749 19.7309 8.47168 5.02382 -2.58114 -3.36417
1228 3 23.215 17.8574 4.88975 5.5005 -4.49351 -3.41727
2129 3 24.6363 18.0755 6.93088 7.11802 -3.21563 -0.525758
1231 3 24.8738 19.8464 5.27583 3.3822 0.426915 3.2679
1288 1 22.8906 21.4983 4.87211 -2.44662 -4.17842 2.35079
2126 2 23.1159 19.6887 6.882 -2.31341 -3.38167 2.17032
2189 3 25.0524 21.5889 7.08432 -3.79409 0.807414 2.94391
2131 1 25.0828 19.7921 8.76637 -1.10237 -7.43084 6.55053
2132 3 26.6604 17.8136 8.73349 1.90485 -3.96218 -4.90728
2130 3 26.7333 19.5988 6.99605 -2.29683 -9.81933 1.59197
1232 2 26.6744 17.7998 5.02807 -7.1668 0.586422 0.485319
1263 2 -0.140299 23.039 5.11814 0.543417 -3.78512 0.722237
1267 2 3.4177 22.9904 5.2223 5.03304 -0.398846 0.257853
1324 1 1.50954 24.8252 5.24873 -8.77781 3.11022 1.29438
2162 1 1.24862 23.034 6.79372 2.29005 -3.35601 4.54414
2225 1 3.4248 24.8433 6.99955 2.84378 3.07991 2.00721
2222 2 1.50231 26.6759 7.2056 1.4122 -0.842861 4.34907
2167 2 3.56628 23.1387 8.69264 -1.3582 4.36111 -3.87346
1327 2 3.11137 26.5906 5.20596 -1.88917 2.81703 -1.53497