ITEM: TIMESTEP
78600
ITEM: NUMBER OF ATOMS
13500
ITEM: BOX BOUNDS pp pp pp
-2.1212177795985099e-01 5.3732121777949658e+01
-2.1212177795985099e-01 5.3732121777949658e+01
-2.1212177795985099e-01 5.3732121777949658e+01
ITEM: ATOMS id type x y z vx vy vz
7 1 3.39067 1.77909 1.50052 -5.87292 6.3215 1.1785
64 1 1.44954 3.41354 1.55711 -3.58852 -5.40462 -1.92268
902 2 1.6823 1.47565 3.11219 -7.05515 -1.05075 -3.57078
965 2 3.39531 3.55469 3.39295 4.12278 -2.51625 0.410305
2 2 1.41083 1.79792 -0.149346 -3.59974 0.091417 -2.33593
905 1 3.40962 -0.219146 3.43308 -5.56953 -3.23369 4.4273
11 1 6.90989 1.67649 1.37024 1.7792 -5.61047 1.23106
68 1 5.09286 3.47964 1.78638 -4.68297 -3.26387 7.6009
906 1 5.23826 1.57895 3.31358 -0.393922 -7.58716 2.43316
969 2 6.93318 3.42589 3.25791 -1.68048 0.585603 0.303438
72 1 8.77571 3.50202 1.54213 1.26894 0.766059 1.17883
910 2 8.74281 1.79023 3.36176 1.1215 2.49265 3.48363
10 2 8.34311 1.33972 -0.192264 4.022 2.09038 0.35103
69 2 6.77951 3.38181 -0.169332 1.29237 1.37539 5.47527
15 2 10.672 1.68231 1.57209 -3.9792 1.20308 0.103001
76 3 12.2505 3.66653 1.21799 0.719992 3.90258 2.67353
914 3 12.3208 1.67977 3.55993 0.506243 -4.83489 0.271717
973 1 10.6424 3.51371 3.2497 4.68601 0.141192 -3.51754
913 1 10.252 -0.1614 3.25742 -3.676 -8.87476 -4.61114
16 3 12.3609 0.0155717 1.7264 1.65418 4.06989 0.139754
19 3 14.1634 1.63535 1.51865 -7.03181 -0.265829 4.53188
80 1 15.999 3.41937 1.54343 -7.75017 3.44415 4.2559
918 3 15.6809 1.84214 3.27763 0.801161 6.13998 -7.62863
977 2 14.0993 3.57249 3.27097 1.56445 0.830371 -2.2012
20 3 16.0372 -0.187653 1.81975 -1.00533 1.26313 0.00888152
18 1 16.0225 1.52699 -0.080646 -3.50871 7.76122 -2.71538
21 3 17.6333 -0.0191646 -0.0460004 4.19454 -2.37877 -0.635472
23 2 17.6675 1.82169 1.61315 -3.53203 0.179769 -1.18831
981 1 17.666 3.5343 3.37699 -3.20847 1.21878 8.56954
921 2 17.8218 -0.09887 3.43898 -0.528349 -1.87885 5.92713
27 3 21.3957 1.62454 1.34532 3.90505 0.440209 -3.77813
84 3 19.6795 3.34773 1.42744 0.661737 -2.8408 -0.92043
922 3 19.3258 1.51596 3.42173 2.62403 5.37508 -0.591051
985 3 21.0609 3.30673 3.2407 -0.419128 4.8617 4.56637
24 3 19.4866 -0.0352023 1.49607 1.87247 3.43372 6.63801
925 1 21.1779 -0.0215922 3.26992 -3.97705 -1.99361 2.27248
81 3 17.8221 3.50377 -0.151988 3.33257 -4.33963 2.92513
31 1 24.8239 1.48121 1.89988 -0.969375 0.0438986 8.55842
88 2 23.0645 3.59951 1.53366 6.96166 0.37725 -1.55175
926 1 22.9692 1.82352 3.17542 -1.233 6.68681 -3.57937
989 1 24.9057 3.60518 3.44252 -1.27503 -0.269142 -2.40372
930 2 26.6876 1.56086 3.40048 4.82246 5.61153 -3.59707
929 1 24.6203 -0.13436 3.57871 -0.80907 -3.59186 -3.1086
28 2 23.1637 -0.0410791 1.61393 -5.29956 -3.11639 1.6762
92 2 26.4975 3.22584 1.72068 -3.73815 -1.10071 -4.00199
67 2 3.10997 5.20635 1.59043 -2.5043 -1.21796 0.39597
124 2 1.268 7.00553 1.18135 -0.0741993 -1.93418 0.710463
962 1 1.35773 5.28748 3.36033 -6.20252 -3.30105 -6.24115
1025 1 2.96197 6.90409 3.21157 1.15535 1.27625 2.89526
127 2 3.15983 8.48982 1.68522 -3.38997 2.13482 4.7315
71 2 7.28968 5.19151 1.43021 -0.354861 0.702639 0.995022
128 2 4.99359 6.92725 1.59898 -1.78593 3.06916 -2.24847
966 3 5.05141 5.26874 3.32137 -2.08017 0.156742 3.93774
1029 2 7.02941 6.9635 3.25487 8.0902 -1.52459 5.23006
970 1 8.67699 5.12306 3.25011 -2.07874 -0.15392 1.66315
1026 1 4.9764 8.73961 3.42853 -2.33891 0.210847 -1.29547
131 1 6.95125 8.39923 1.59503 3.39778 -3.33828 2.99029
126 2 4.96063 8.71374 -0.1005 -4.68003 4.88137 2.95997
129 1 6.71876 6.8119 -0.186616 -0.909053 2.27146 2.85703
132 1 8.88215 6.94454 1.62182 0.00966907 0.462307 3.33246
75 2 10.4008 5.15561 1.4842 9.99747 6.07013 5.30479
136 3 12.4675 6.81891 1.63086 7.01868 3.00267 -0.996568
974 3 12.1105 5.31117 3.49276 0.653849 3.74172 2.6693
1033 3 10.5353 6.96001 3.55022 -1.0519 3.77104 -1.16047
135 3 10.7475 8.76497 1.50812 6.62956 -1.23413 -1.83826
1034 3 12.3542 8.61118 3.41577 1.86076 -1.98685 -3.11157
79 1 14.176 5.07922 1.70349 1.60669 0.837947 1.26501
140 2 15.8641 6.94679 1.5229 1.69167 2.57317 2.8429
978 1 16.1175 5.15054 3.13137 -6.96687 -0.961192 -6.86619
1037 2 14.1118 6.90702 3.63067 9.00862 -4.75393 0.195918
83 2 17.7217 5.05673 1.67918 2.69848 -1.29102 0.970111
1038 1 16.0075 8.61423 3.34479 2.97969 1.71745 3.22207
139 3 14.2433 8.73517 1.72466 -2.85981 7.71561 -2.55549
143 3 17.6834 8.48754 1.83391 6.4615 -0.316899 -3.64237
137 1 14.0964 6.98049 -0.054746 -1.18345 -3.22936 6.18581
1041 2 17.9802 6.70347 3.57889 9.99958 1.23097 6.18756
87 1 21.4271 5.2489 1.38456 5.16331 2.1368 -4.04104
144 1 19.772 6.94772 1.62494 4.31304 2.5053 3.60577
982 2 19.4449 5.17549 3.13235 -2.75814 0.355676 3.27343
1045 2 21.3509 6.68936 3.36217 1.75565 -3.98611 -3.35377
1042 1 19.5571 8.74686 3.22611 4.76616 1.02618 6.95597
145 2 21.3715 7.1445 -0.176839 -2.90356 2.19046 1.34626
141 1 17.9006 7.08501 -0.0964786 -0.622201 -5.96978 -0.32594
82 1 19.5076 5.28887 -0.149701 -1.10632 1.87949 3.35155
142 2 19.5269 8.71756 -0.0582674 -1.1698 -3.9694 3.54093
91 2 24.909 5.11113 1.52266 -2.31279 8.46749 2.90125
148 1 23.0848 6.94349 1.70005 1.59572 -4.45487 -1.3568
986 1 23.2438 5.14753 3.53088 1.11111 1.71002 1.32981
1049 1 24.8823 7.08078 3.27083 -1.26143 -7.34774 5.19831
86 1 23.1382 5.11939 -0.116124 0.105066 1.28532 -0.79406
149 2 25.0731 6.97707 -0.0554659 2.13853 3.62329 0.84081
152 1 26.6604 7.08599 1.74772 -5.24258 0.975806 -6.27478
990 2 26.5994 5.28592 3.61021 4.97121 0.99347 -6.39721
150 1 26.5012 8.70499 -0.084552 3.4062 4.91158 -2.86611
1046 1 22.9546 8.63655 3.58509 0.626707 3.12761 5.43962
1050 1 26.6448 8.63311 3.54041 -6.26404 6.47655 -4.35929
1022 3 1.20141 8.92047 3.49383 2.28625 -0.53674 2.16037
184 3 1.5599 10.6979 1.76924 3.99723 -1.69235 -2.94952
187 2 3.38137 12.4241 1.7302 -0.965438 1.49087 0.510636
1082 3 1.73468 12.537 3.41049 -4.47536 -3.01132 3.6486
1085 3 3.19172 10.3223 3.51686 -4.63309 1.35533 -1.09082
185 1 3.27747 10.7256 -0.0949083 2.3087 -5.06099 7.80556
183 2 0.0114994 12.5091 1.77827 0.67391 3.831 0.224957
123 1 -0.207837 9.01397 1.61656 1.09706 -1.95219 1.13861
1030 2 8.56173 8.80547 3.39384 0.665805 -1.04844 -5.77031
188 3 5.05538 10.39 1.57825 -2.21837 -7.00419 2.86641
191 3 6.75103 12.4728 1.73571 -0.759312 -4.03931 -4.90752
1086 1 4.85223 11.9475 3.31429 1.62414 -5.05455 7.21765
1089 3 6.96615 10.6636 3.32101 0.163286 5.34791 5.52533
192 3 8.72421 10.4146 1.60196 -2.16054 2.66066 2.18511
189 2 6.85611 10.1367 -0.182738 5.22317 6.58053 -1.12931
190 3 8.42026 12.2483 0.0407868 5.04395 -5.55947 -2.37821
186 1 5.31399 12.2331 -0.0808065 -1.62297 7.17764 -1.13542
1090 3 8.78362 12.6465 3.34027 0.0238079 -5.3553 -5.18524
195 3 10.7132 12.2859 1.56234 2.80978 -1.92616 -0.143246
196 3 12.3487 10.4853 1.59054 -0.311969 -2.93431 0.325543
1093 3 10.4405 10.503 3.30292 0.691808 -0.902703 1.55701
1094 3 12.3367 12.4567 3.38783 9.76049 2.7393 -1.32487
194 2 12.2835 12.3075 -0.11334 -9.76583 3.31835 -2.74019
199 3 14.1124 12.5052 1.6299 1.49181 -9.56853 3.89983
200 2 15.8755 10.4993 1.72919 1.27007 -3.59179 5.52561
1097 3 14.1553 10.5853 3.41423 1.07178 -1.7862 -2.28699
1098 1 15.6722 12.4689 3.37199 -0.675434 -1.94134 1.60354
1101 2 17.5623 10.4537 3.26622 -1.26863 2.36966 2.27204
197 3 14.1033 10.6565 -0.179585 -4.43158 -0.88463 -3.01276
198 1 15.915 12.1093 -0.156125 -5.05653 4.42871 -3.18826
138 3 16.0953 9.02851 -0.054434 -4.79176 1.03598 3.5229
147 2 21.4985 8.94386 1.63165 3.55808 1.59495 -1.90745
203 3 17.78 12.5285 1.50906 -0.443321 5.17027 -2.85715
204 1 19.3197 10.4999 1.75383 -3.57337 -1.17452 -3.4971
207 2 21.2852 12.1846 1.6275 2.75334 -8.82539 -0.634099
1102 3 19.6094 12.2816 3.30425 -1.08233 -1.83992 -5.60134
1105 3 21.5264 10.7123 3.75512 0.830684 -3.42532 0.587252
205 1 21.4922 10.4388 -0.158998 -3.52145 -1.08096 -0.932768
151 2 24.7026 8.87164 1.71134 1.08208 -2.79527 3.2988
146 1 23.3022 8.79917 -0.126052 -3.59492 -1.68778 -1.3503
208 1 23.3065 10.6644 1.76251 -0.789011 3.06692 1.16425
211 1 24.9033 12.4894 1.62774 -0.0651614 0.135182 -2.65659
1106 2 23.092 12.4551 3.45782 1.56613 1.28148 2.69741
1109 2 24.9008 10.5215 3.322 -0.822837 2.60955 5.00959
210 3 26.7061 12.447 -0.172933 5.60456 1.91623 -1.91834
209 2 24.7491 10.6281 -0.117914 0.256366 -1.60506 5.85563
244 3 1.51948 14.3385 1.74594 -0.11536 1.9933 -0.871813
247 1 3.5693 15.9467 1.72974 -3.67999 2.00778 -2.32326
1142 2 1.29203 16.0653 3.2993 2.9755 1.21271 -0.412679
1145 3 3.4347 14.3018 3.31121 0.329533 -1.85137 3.03145
245 2 3.16026 13.9966 -0.203654 -5.31634 4.90974 -9.38463
242 2 1.8148 16.0126 -0.215788 4.26998 -1.25231 -3.78303
304 1 1.49911 17.6492 1.52288 -2.75105 -6.08133 -3.00962
248 2 5.07188 14.039 1.54252 9.87771 1.49384 2.58085
251 1 6.79783 15.7427 1.48342 1.28578 4.86056 -2.70519
1146 2 5.33281 15.9597 3.52396 -2.53101 -1.98053 3.84798
1149 3 6.63409 14.0564 3.46863 -2.3358 4.1883 -1.02254
246 1 5.19634 15.8147 -0.0936163 -3.19537 -9.04383 -2.6934
1209 1 6.86852 17.542 3.29454 -2.43385 -6.45113 -5.29822
250 1 8.67308 15.7939 -0.211697 1.83268 -0.668979 -0.888204
252 2 8.71418 14.2863 1.57634 -3.19957 -0.378857 3.04633
1150 1 8.85807 16.0315 3.23206 1.58468 0.837568 1.8196
255 2 10.6294 15.943 1.38357 -3.49989 5.76726 -2.18194
256 1 12.4985 14.3826 1.6567 3.78357 -2.98966 -5.1947
1153 3 10.6255 14.1169 3.2798 -2.2111 4.53604 -6.56021
1154 2 12.2481 16.0052 3.42432 -3.34786 3.9113 1.96321
1213 2 10.4891 17.5025 3.50682 -1.75924 7.25007 -1.34662
254 2 12.4662 16.2819 -0.188136 0.337394 -1.06593 3.71371
259 1 14.027 16.0583 1.54887 2.03034 6.10754 4.24053
260 2 15.8179 14.141 1.46937 1.61521 -3.58577 0.555468
1157 2 14.0812 14.1793 3.25533 -7.54496 -0.556937 -4.366
1158 2 15.9338 15.85 3.6119 1.29776 -1.05044 -6.38592
1217 1 14.0671 17.7101 3.42607 -0.0639313 0.94242 7.37896
263 1 17.572 16.0414 1.68906 -3.35558 1.12313 1.21428
1221 1 17.6727 17.5855 3.57963 -0.729112 -1.99031 -4.95636
257 2 14.268 14.1247 -0.199596 -2.10294 -7.00278 -0.898396
1161 2 17.6845 13.9362 3.42797 -5.95162 -1.96914 -0.0419501
261 2 17.8702 14.4896 0.143936 -1.13415 3.57201 0.754219
264 1 19.7384 14.3517 1.64662 1.78744 -0.0487698 0.54436
267 2 21.1439 16.1919 1.89255 -6.78289 2.67756 2.65836
1162 3 19.4378 15.9584 3.41806 -1.29154 -8.99332 -1.06918
1165 2 21.5862 14.1975 3.35336 1.48949 4.23169 -0.697123
262 1 19.7353 15.9052 -0.0951348 -4.57541 0.860995 1.47901
1225 3 21.0608 17.6439 3.67207 0.591172 0.352267 -0.247658
265 1 21.2994 14.1012 -0.0594842 -1.60042 3.92274 5.83984
324 2 19.5365 17.7597 1.78095 -4.21182 -0.925501 -4.81105
268 3 23.0543 13.9895 1.5307 1.51015 -4.37134 1.00471
271 1 24.8787 15.8493 1.67261 0.117141 3.48624 1.98129
1166 3 23.141 15.895 3.47577 2.84264 -3.29583 4.0299
1169 3 24.7938 14.0784 3.60859 -7.71447 1.27219 -2.01288
266 3 23.165 16.0202 -0.058025 1.16745 -7.31806 -6.27247
332 2 26.2679 17.6911 1.49874 4.83488 2.56833 0.222235
270 1 26.5609 15.9214 -0.0445868 -1.37218 -7.02761 3.33305
272 2 26.6131 14.2683 1.70519 -8.63659 -3.54259 1.60081
1205 1 3.36163 17.8474 3.38217 1.11014 3.1897 -7.67646
305 2 3.40825 17.9511 -0.020997 1.02527 2.14243 2.37981
307 3 3.35982 19.66 1.75236 2.72883 3.39433 2.96187
364 3 1.53744 21.4566 1.47896 -0.659602 4.76961 -1.11985
1202 3 1.4588 19.5189 3.37241 -3.82246 2.01828 -0.434929
1265 3 3.31397 21.4403 3.53651 1.16201 4.38218 -5.50265
365 3 3.57974 21.4493 0.129853 -4.18841 -1.10302 -4.60735
302 1 1.4103 19.568 -0.166715 0.477549 -4.02056 -0.734362
303 2 -0.136703 19.7876 1.62053 1.51218 3.94542 -2.61484
312 3 8.59138 17.7867 1.51806 -0.433579 0.984009 -0.716288
308 2 5.15381 17.9457 1.71714 -2.82927 7.86277 1.97751
311 1 6.94199 19.4332 1.59236 -2.7665 5.3705 4.42872
368 2 5.22598 21.6865 1.62842 -5.70624 -0.0668796 1.30512
1206 3 5.27808 19.7436 3.54585 -7.06327 -1.90776 -3.17577
1269 3 7.0995 21.4124 3.35239 4.84994 1.04523 2.83783
372 2 8.51266 21.3112 1.64428 8.62494 3.3264 0.557366
310 2 8.74731 19.6503 -0.199514 -0.686654 4.64573 -4.64466
369 1 6.94348 21.2097 -0.0550659 -0.594499 -4.24942 1.45831
1210 2 8.59617 19.5648 3.29451 -5.04534 -1.55399 -3.38991
316 1 12.2456 17.9766 1.5536 -1.75362 1.9285 -5.34106
315 1 10.4941 19.5299 1.75036 1.39504 1.23546 -2.09512
376 2 12.3003 21.2831 1.64102 0.183176 -0.660327 -3.88392
1214 2 12.4382 19.7464 3.36275 -8.50214 -3.04348 0.620977
1273 1 10.411 21.3192 3.42824 0.848364 -0.741492 -0.9964
314 2 12.5166 19.5776 0.027513 5.08967 -2.78286 1.74136
320 2 15.925 17.9561 1.75415 -4.90145 -2.04531 0.372907
319 1 14.0298 19.5841 1.60646 -1.96623 -2.92389 0.913904
380 2 15.8287 21.4839 1.51514 0.645581 1.6256 4.52608
1218 2 15.7597 19.711 3.46337 0.918184 -0.232125 -3.6933
1277 1 14.2154 21.4608 3.52162 -1.69357 1.39954 -2.18124
377 1 14.1176 21.3446 -0.115096 -1.84812 -7.06006 -3.32143
1281 1 17.5744 21.2666 3.63327 -1.33936 -3.28037 -0.816407
318 1 15.9872 19.5639 0.0728531 0.345571 -9.48332 -0.531262
317 2 14.3813 17.8389 0.00622171 -4.97496 -0.436906 1.90935
323 1 17.6654 19.6014 1.84558 -5.15084 -6.31854 -1.50249
325 3 21.3303 17.7867 -0.0421514 -8.90527 1.17601 1.40292
381 1 17.949 21.4354 0.0245835 1.56924 -5.40453 2.32958
321 1 17.8684 17.8559 -0.136119 -3.28278 -5.49139 3.62553
327 1 21.2069 19.6796 1.79391 -3.8842 0.91656 3.81002
384 1 19.298 21.4989 1.90109 5.53515 0.124947 -0.287763
1222 2 19.5957 19.6534 3.39485 -2.04299 7.25825 1.23188
1285 2 20.9975 21.4406 3.50946 1.2215 -5.88844 5.27719
385 1 21.1945 21.5707 0.0157336 1.90619 -5.78528 1.12761
328 3 23.1227 17.9888 1.77011 -1.36434 2.54187 -5.49306
1229 3 24.6907 17.7743 3.84284 0.790698 -1.42229 4.25679
331 3 24.8224 19.6409 1.6131 -1.27569 -1.39679 -2.92293
388 2 22.993 21.3469 1.55192 -1.60191 -0.000574567 3.63175
1226 3 23.1601 19.6188 3.55022 9.26186 2.36879 -2.94081
1289 3 24.9776 21.4404 3.35755 -1.00137 4.92301 7.2014
326 3 23.1248 19.3876 -0.113785 5.19592 4.38403 2.68944
392 2 26.7619 21.3217 1.70238 1.93097 5.11233 -0.580295
389 2 24.7986 21.476 0.0501242 3.35746 -6.60796 0.144721
1230 1 26.6219 19.3925 3.32651 -3.15839 3.03413 -0.872306
330 1 26.7113 19.5815 -0.169097 -5.71503 3.58022 0.389019
423 1 -0.146332 26.7331 1.59094 -1.42342 -5.28289 -3.56452
367 3 3.31524 23.4474 1.75663 2.82444 3.19064 1.24454
424 3 1.76761 25.0913 1.72522 0.0686023 -2.10942 0.298279
1262 3 1.52767 23.2043 3.48547 -4.66309 -0.0295277 -2.14997
1325 2 3.35934 25.116 3.73367 -1.71485 1.08091 4.69069
362 2 1.19353 23.6774 -0.129467 -4.11396 -0.852166 -1.49504
1322 1 1.39588 26.6172 3.55967 -5.96155 1.6775 3.95912
422 2 1.68095 26.7115 -0.173636 4.60493 3.2838 1.87065
425 2 3.39078 25.1854 -0.0629743 4.27593 0.248812 7.46649
371 1 7.20247 23.4119 1.95201 -4.48893 -0.667029 1.28159
428 3 5.14449 25.1056 1.74573 -0.302265 4.90267 1.93891
1266 1 5.09269 23.501 3.49432 0.935286 0.0856362 1.26791
1329 3 6.98607 25.3406 3.43663 2.54995 0.158637 3.59048
432 1 8.57741 25.2347 1.29113 2.31026 5.34316 -1.52608
429 2 6.96506 24.9183 -0.0513645 -5.13292 -0.934273 -0.804558
1270 2 8.85115 23.3007 3.4775 2.53696 -0.887047 3.21658
375 3 10.4466 23.014 1.67579 5.84976 3.30838 -0.866688
436 3 12.2837 25.0568 1.39375 -7.72688 3.57422 1.84701
1274 3 12.3297 23.116 3.27305 -4.27197 3.98329 -1.37961
1333 1 10.4798 25.0719 3.42017 -3.71752 1.65298 2.9932
379 2 14.1156 23.2192 1.64262 -1.16319 3.06554 -3.01332
440 1 15.8202 25.1632 1.54037 -6.50713 4.00364 -5.09712
1278 2 15.8835 23.2468 2.93855 6.34887 4.04033 10.9176
1337 1 13.9537 25.1322 3.18927 2.99168 1.01942 -4.4286
383 1 17.5255 23.378 1.59306 -0.0903599 4.98076 -0.269182
438 2 15.891 26.7393 -0.152575 -5.67964 -1.58675 -5.22142
1341 2 17.8047 25.1719 3.34801 4.6721 -1.73025 7.112
387 2 21.3448 23.288 1.44319 5.10111 -2.69127 -1.10029
444 1 19.7462 25.1354 1.43712 2.71897 5.09403 4.36525
1282 1 19.6095 23.3827 3.27233 1.91579 5.49249 4.22383
1345 3 21.6161 25.0745 3.2293 -0.183431 -2.69877 -0.0589686
382 2 19.456 23.2507 -0.0526168 -2.06942 -1.33557 3.21842
447 2 21.5754 26.7296 1.44698 0.141976 -0.868902 -2.78031
391 1 24.9517 23.2719 1.70072 -6.7122 -4.36123 4.71165
448 2 23.3896 24.8643 1.54249 1.52064 -1.17531 1.65628
1286 1 22.9493 23.1994 3.27639 1.16036 2.83704 -1.21037
1349 1 24.856 24.9681 3.43291 -6.68012 0.85654 2.37755
386 3 23.1022 23.2811 -0.0905827 1.5979 6.8526 0.767426
1290 1 26.7319 23.3142 3.34967 3.81094 -2.89677 -2.73921
452 2 26.6902 25.1992 1.60444 -0.532907 -3.66943 -2.93588
1805 1 3.09291 -0.0228307 7.10518 -3.90197 5.18284 -3.97075
907 1 3.39346 1.65234 5.25058 -1.20567 0.721609 -1.3922
964 1 1.65833 3.70341 5.01677 2.67379 4.6023 -5.58703
1802 2 1.52094 1.92312 6.79833 -1.10375 5.79666 3.86908
1865 3 3.61413 3.49768 6.92759 -2.43879 2.59219 0.899801
904 3 1.63347 -0.0452443 5.12286 0.151912 -3.72301 -1.59064
1807 2 3.55771 1.77798 8.57675 3.58339 5.30651 -0.0513199
1804 2 1.51727 0.00107656 8.7491 2.39589 -1.62522 0.619316
908 2 5.09608 -0.147201 5.16456 -1.34538 -4.49679 5.49355
911 1 6.8831 1.66555 5.11116 -0.59615 -1.30544 -3.22122
968 2 5.20389 3.60647 5.14824 2.32493 1.23461 -1.74368
1806 2 5.21672 1.75609 6.87401 -0.196602 -0.644418 -3.30453
1869 1 6.87134 3.59921 6.89441 -4.66675 -0.114307 -1.11383
1810 2 8.56708 1.644 6.78035 -2.52327 -5.41863 1.54747
972 1 8.54971 3.32014 5.13837 -0.844681 -6.0158 0.0980073
1868 3 5.38254 3.46641 8.72768 -5.24658 -0.780365 -0.456212
1813 2 10.4281 0.243858 6.88137 3.82891 8.24836 -5.57135
915 1 10.3472 1.73032 5.25311 0.590594 -0.92426 3.72865
976 1 12.1725 3.50732 5.24689 -3.959 5.14035 2.60519
1814 2 12.3429 1.79698 6.94838 -6.59583 -2.92959 8.49421
1873 1 10.3262 3.53425 6.99322 -0.681452 -5.84723 4.68415
916 3 12.1782 -0.0609082 5.16669 -0.975254 -9.48384 0.05105
1876 2 12.3292 3.56084 8.73617 -0.798179 -1.65137 2.92109
1816 3 12.302 -0.0137577 8.63944 -5.39254 -2.31603 1.40706
1812 1 8.82433 -0.0879051 8.75089 -0.250545 -5.31849 -6.82522
919 1 14.1123 1.65798 5.27955 2.27731 -0.308496 -3.69144
980 3 15.8572 3.57082 5.17984 -0.196194 3.01095 2.96537
1818 2 15.8575 1.63147 7.34632 -4.83391 1.70161 2.26479
1877 1 13.9477 3.53058 6.95751 1.36241 3.24666 2.15742
1881 1 17.721 3.33502 6.98115 -2.48829 4.65118 3.81737
920 3 15.9661 -0.0512316 5.16035 4.41945 -10.6259 -1.64682
923 3 17.4826 1.71159 5.36999 -2.15864 -1.76172 -0.984417
1817 3 14.2479 -0.153937 7.08254 2.87272 3.73168 3.84875
927 2 21.3049 1.61513 5.22683 3.89588 11.3457 0.963538
984 1 19.4755 3.38568 5.18929 -4.72925 3.09908 -4.54303
1822 1 19.64 1.54457 7.22315 -2.36734 1.85723 0.785314
1885 1 21.0643 3.35251 7.10945 -6.10265 -0.777151 -6.7277
931 2 24.6455 1.69066 5.23718 6.37902 -4.47486 -1.47696
988 3 22.7646 3.44645 5.18789 0.845478 1.12212 -0.91876
1826 1 22.8568 1.71304 7.09675 0.0946967 -0.0470057 1.67334
1889 2 24.6357 3.43587 7.04513 3.10653 -1.63792 1.13927
1831 2 25.1295 1.66934 8.65131 -2.01755 2.22831 2.87862
992 1 26.5488 3.24982 5.16622 -1.247 -0.185082 4.8341
1830 1 26.5725 1.37519 6.71411 -5.4124 3.02203 3.36284
967 2 3.33811 5.28262 5.11944 -0.654046 2.17741 0.286529
1024 1 1.46191 7.06672 5.07995 5.75505 -4.92449 3.78934
1862 3 1.41642 5.05003 6.94448 2.65455 -1.40102 -7.02431
1925 3 3.26683 6.9882 6.92418 0.633095 3.49921 2.81097
1867 2 3.18248 5.48025 8.73779 -2.09998 -1.92378 4.91945
1027 2 3.16581 8.53776 5.24722 -11.8542 -1.95372 1.53144
971 2 6.97126 5.28299 5.24615 3.61124 2.70658 -3.24999
1028 3 5.18894 6.92772 4.95359 1.73268 -4.41602 1.40598
1866 1 5.20908 5.36884 7.00363 6.24229 -0.0182316 6.43366
1929 2 6.98252 6.99843 6.97222 4.59005 2.49847 4.19977
1870 1 8.51152 5.21942 7.23253 -0.0604919 -1.84681 -1.01524
1032 3 8.79447 6.86808 5.30367 -2.00467 1.53508 0.396548
975 2 10.3315 4.98381 5.26502 -2.91257 -4.69347 2.74669
1036 3 12.0204 6.71754 5.27067 -1.12975 2.25068 4.37321
1874 1 12.2291 5.06716 7.0039 -0.404059 -3.53877 3.16253
1933 3 10.3106 7.09737 7.08545 0.335968 -1.03985 -3.03431
1934 1 12.0124 8.72825 7.08264 3.17528 1.67969 1.8144
1936 2 12.2676 6.91365 8.52201 2.36479 -1.26699 -2.16619
979 2 14.0447 5.32078 5.20706 0.897421 -4.66686 -0.294683
1040 1 16.0281 7.09984 5.03367 -0.0940022 3.92638 2.69259
1878 3 15.9807 5.22541 7.02997 -0.187481 -1.07486 -0.0756021
1937 1 13.9568 6.90812 6.95296 1.20201 1.30652 -0.603447
1940 2 15.729 7.06724 8.76476 -0.129766 2.52349 -0.0550518
1938 2 15.7194 8.77674 6.76226 6.51456 2.07191 -2.03455
1941 2 17.6162 7.2149 7.0405 1.88122 1.51435 -1.13419
983 2 17.77 4.9002 5.10238 3.3891 3.87704 6.5545
1039 3 13.8949 8.49112 5.22953 0.119582 3.06668 1.58534
1939 3 13.9073 8.68058 8.61641 -0.19789 -0.958729 6.50324
1943 1 17.7057 8.74798 8.75145 -3.08126 1.45705 3.39723
987 3 20.9511 5.3234 5.26516 -5.19708 -2.66705 -6.41918
1044 1 19.4443 7.12067 5.2008 0.420168 -3.48712 1.69317
1882 3 19.2042 5.21115 7.04016 4.53142 1.21796 -1.54286
1945 2 21.1576 6.96874 7.10336 2.84002 2.38997 6.92097
1047 2 21.3109 8.75293 4.95821 6.21209 0.163574 0.827281
991 2 24.7832 5.45266 5.37996 -3.50572 -5.86193 5.75963
1048 1 23.0119 6.89115 5.41076 3.57823 0.116366 -0.953
1886 3 22.9466 5.12257 6.97701 -0.352768 1.41288 -3.54726
1949 2 25.2064 7.00089 7.13819 -1.78771 -1.7261 4.22484
1051 2 24.8389 8.69378 5.37842 -0.237091 -2.39009 0.356757
1891 1 24.821 4.99007 8.73567 -4.7921 3.5918 -0.98387
1946 1 22.9052 8.57688 7.1005 -6.61427 3.43052 -1.70452
1927 3 3.21749 8.78572 8.69326 0.495388 3.39062 1.45115
1922 1 1.25834 8.95138 6.90048 -6.97246 4.49561 -5.42711
1084 2 1.39071 10.5471 5.27727 1.02292 -1.4934 3.73706
1087 3 3.3409 12.4262 5.17116 -1.23699 -0.363412 0.140965
1982 3 1.53202 12.4721 7.01188 3.82482 -0.970037 2.55758
1985 3 3.3782 10.4972 6.57641 -3.50012 -0.340315 -1.7619
1984 2 1.38717 10.5387 8.7592 -2.58593 -3.75363 8.31796
1083 3 0.00564216 12.5736 5.20264 1.87557 9.43596 -3.26667
1987 1 3.27468 12.2304 8.77254 5.63397 4.58028 0.260904
1926 1 5.06213 8.81246 7.03909 0.112492 0.994476 -6.14832
1031 1 6.9672 8.79069 5.04069 -0.596083 -1.47037 0.132509
1930 1 8.74006 8.82055 6.79654 -0.801429 -0.887329 -1.70379
1088 2 5.24912 10.723 5.19643 5.5862 -1.27525 -1.684
1091 3 7.12695 12.4676 5.12237 -5.17217 1.01218 1.41135
1986 3 5.05646 12.2862 7.2232 0.464813 -8.4674 0.684262
1989 3 6.85193 10.3848 6.79543 0.57352 3.09031 0.0288751
1092 3 8.53525 10.7058 5.05358 2.27896 2.72307 0.520894
1990 1 8.43903 12.5455 6.97028 -0.952699 1.27125 -4.1672
1931 3 7.0466 8.82969 8.75591 -3.21114 7.47149 -2.81762
1988 2 4.96735 10.3443 8.7632 -0.160342 7.29262 -2.64787
1992 2 8.92516 10.6467 8.65189 6.19793 4.39735 1.03031
1035 3 10.5269 8.92743 5.14789 -8.47994 1.8181 1.44385
1095 3 10.593 12.3788 4.98806 1.33104 3.7275 2.37925
1096 3 12.3069 10.7304 4.99413 -1.00017 1.3745 -3.41073
1993 3 10.3185 10.8555 6.8405 -4.74022 1.09221 -0.701395
1994 1 12.1426 12.5805 7.22342 -1.11224 0.736835 1.54025
1996 2 12.1298 10.526 8.66014 5.4281 -3.43059 7.13902
1099 3 14.1376 12.4038 5.29877 -4.3868 5.06945 0.886901
1100 3 15.7923 10.4164 5.15568 3.18783 2.06863 0.395725
1997 3 13.9645 10.6086 6.86019 3.42184 -4.3309 0.0689596
1998 2 15.8393 12.1101 6.96891 -2.96527 5.61873 -3.7187
2001 2 17.7487 10.6306 6.75618 -1.04044 -2.31204 -5.32538
1103 3 17.6661 12.3076 5.25547 1.75529 5.06616 -1.52846
1043 1 17.8612 8.79811 5.08412 -3.03479 2.69609 -2.76601
1942 1 19.47 8.95888 7.0061 1.80892 -3.69895 5.63692
1104 2 19.3923 10.5212 5.01714 -0.892202 5.8923 2.78213
1107 3 21.2399 12.488 5.35216 1.17943 -2.49496 -5.12259
2002 1 19.2746 12.3202 7.12004 0.19113 2.50106 3.22832
2005 1 21.4084 10.7111 6.6796 3.99095 1.03147 -0.439554
2007 3 21.2992 12.4241 8.74678 -5.62007 -4.38083 -0.124643
2004 2 19.6783 10.6472 8.50707 2.82801 5.13677 -2.89693
1108 1 23.1688 10.3107 5.2942 -1.69916 -4.14773 8.10834
1111 1 24.693 12.3492 5.27679 1.05875 -1.16313 -2.1245
2006 2 23.1036 12.1654 6.98534 -1.18532 -2.7023 -3.0061
2009 3 25.097 10.5697 6.76463 0.110519 3.90574 -4.63719
1112 2 26.6688 10.6616 4.98707 1.63063 -2.60411 -3.67089
1144 1 1.39733 14.3101 5.24445 -2.55466 -0.296007 -0.841041
1147 3 3.46406 15.9134 5.00218 -2.70761 0.831216 -1.8103
2042 2 1.49096 16.0341 7.11804 1.65184 3.14009 -0.839752
2045 2 3.54754 14.0335 7.00043 4.80176 4.30439 0.973217
2104 1 1.70984 17.7584 8.62854 -2.43199 2.767 4.32703
2044 1 1.33282 13.8992 8.71199 -5.77149 1.84936 0.769682
2047 3 3.12881 15.7527 8.64673 3.00764 5.71747 0.0846527
2105 1 3.67905 17.6086 7.24424 0.848624 0.174767 -0.047192
1204 3 1.63604 17.6713 5.01436 1.2486 -4.41412 -1.99153
1148 1 5.12606 14.1396 5.52879 -0.791058 -4.88452 4.39217
1151 1 6.80123 15.8758 5.17139 1.57023 0.307764 1.46514
2046 1 5.23042 16.054 7.02138 -0.400094 -3.2546 1.60828
2049 2 7.10337 14.2736 7.07531 -6.34258 2.17285 -2.69884
2050 3 8.46435 16.1881 7.21233 1.47964 1.91781 -9.65358
1212 2 8.70901 17.6138 5.03058 2.85205 5.97555 0.900659
2048 2 5.3357 14.0601 8.58219 0.98693 2.27675 -0.736357
1152 2 8.81097 14.3173 5.21899 3.97402 -1.40872 -3.29837
1155 1 10.4773 15.9385 5.35687 1.50898 -1.60372 -0.435316
1156 1 12.3128 14.275 5.46677 4.62556 3.0662 -1.10835
2053 2 10.3224 14.0526 6.77721 0.0295406 -3.23669 7.27324
2054 1 12.1369 16.1907 7.07682 -0.822326 -5.57974 -0.0678791
2056 2 12.3001 14.2989 8.59933 0.675801 0.00166528 -0.698877
2055 1 10.3911 16.0108 8.76686 -4.74669 2.11594 -0.0147496
1159 3 14.0823 15.8428 5.19681 0.524419 1.58082 -1.04864
1160 3 15.7962 14.195 5.01898 -0.477438 5.02159 -0.0719557
2057 2 14.2007 14.074 7.16742 -0.85491 1.39493 -7.98382
2058 1 15.6975 15.8641 7.13707 -1.95903 -0.500954 -7.35073
2061 3 17.5479 14.0168 6.86001 7.74309 -3.42244 -0.568707
1163 1 17.6746 15.8672 5.34822 -0.575291 5.52792 1.86193
2121 2 17.3466 17.4717 7.02361 -1.85616 2.1194 -3.26419
1220 3 15.966 17.7323 5.18239 -1.16801 2.21678 3.46513
2059 1 13.9536 16.0301 8.63275 -6.42656 1.73372 -0.856145
2063 1 17.5946 15.7713 8.55996 6.5578 -3.18185 -3.95469
2117 2 13.9505 17.6914 6.91438 -0.523379 -4.45758 -6.48397
2060 2 16.0914 14.003 8.7652 -4.38246 1.20442 -0.540315
1164 3 19.5086 14.1364 5.01583 0.939251 3.51854 1.65297
1167 3 21.3236 15.9494 5.34465 4.00764 -0.68071 -2.07495
2062 1 19.4563 15.7626 6.9612 0.159848 0.157663 4.27744
2065 2 21.2399 14.1504 6.83583 1.6047 -9.03162 1.89433
1224 2 19.3311 17.6151 5.4249 1.60714 0.698544 3.49296
2125 3 21.2637 17.6977 6.9661 1.23171 7.97985 -1.68703
2124 1 19.3344 17.7198 8.62162 2.22899 0.650016 5.8526
2067 2 21.1372 15.9966 8.61056 -6.04837 0.0577389 -7.04529
1168 3 23.1139 14.172 5.4018 -0.391625 0.0747911 -0.806836
1171 2 25.0165 15.8386 5.52306 -5.46031 1.35376 0.13565
2066 3 23.0896 15.8627 7.11614 4.95479 -2.21945 -0.605144
2069 1 24.9994 14.3623 6.97072 3.48323 2.58381 3.82882
2071 2 24.8007 16.1141 8.69539 0.420797 -3.16466 5.02666
2068 3 23.0846 14.1853 8.5376 3.71529 1.24898 2.75785
2072 2 26.5994 14.2351 8.48504 5.69783 -2.90675 0.407268
1228 3 22.9633 17.5721 5.41575 0.567772 -1.45826 0.0737166
2129 3 24.8128 17.7199 7.143 -1.3429 -1.77559 6.20673
2101 2 -0.112409 17.7911 7.14517 -2.80099 3.86348 -0.908423
1207 2 3.21474 19.5432 5.03201 6.26846 4.24703 1.86955
1264 3 1.37408 21.4203 5.15091 -0.484648 2.61835 -0.0250553
2102 3 1.71089 19.3887 6.87195 5.96636 -0.383824 5.0801
2165 3 3.46249 21.4993 7.01135 5.90271 -4.8636 -3.07519
2164 3 1.61796 21.5387 8.70332 -0.624599 4.68144 1.85642
1208 2 5.01807 17.8138 5.13791 -6.91137 -0.91138 -4.35434
2109 2 6.72108 17.7688 6.86073 4.31954 -5.94185 3.28173
1211 1 6.92441 19.6082 5.22199 -4.1119 0.930369 3.17142
1268 2 5.45727 21.4971 5.35207 0.74717 -1.34932 1.63492
2106 3 5.08148 19.6514 7.02456 3.11583 -2.84838 4.52635
2169 2 6.87627 21.3689 7.16461 7.33802 2.25552 1.46092
2110 1 8.71517 19.3524 6.91112 1.85309 -1.29468 1.37929
1272 3 8.58057 21.369 5.32943 6.90584 1.35857 0.0838172
2172 3 8.68594 21.39 8.77856 0.979684 7.3657 0.279868
2113 2 10.3158 17.7984 7.18159 -0.698393 2.08222 1.08882
1216 3 12.3774 17.8174 5.1396 -3.98235 0.325569 6.14369
1215 3 10.6296 19.5351 5.15286 -4.02052 -0.26592 -1.93856
1276 3 12.4214 21.559 5.20304 11.0125 -2.34232 -7.71708
2114 3 12.3595 19.4144 6.957 -2.73931 7.91039 2.07213
2173 2 10.3215 21.5566 7.16075 1.01236 -2.73765 7.27424
2176 3 12.1725 21.394 8.75864 -0.983431 3.49622 6.35908
1219 3 14.1687 19.5669 5.26565 -1.18627 -2.83239 2.79807
1280 1 16.0064 21.6884 5.19982 0.58042 -2.67262 2.89364
2118 1 15.8386 19.6208 6.99096 2.63651 3.5824 -4.75979
2177 2 14.0963 21.6157 7.09776 -0.562408 0.69567 -4.63034
2181 2 17.4366 21.4833 6.9436 -2.04401 -2.3622 -0.793375
1223 2 17.6874 19.5862 5.13747 -2.30647 4.20015 -0.777225
2119 2 14.0731 19.7449 8.72784 -1.19309 3.50622 -5.6533
1227 1 21.0029 19.7217 5.20692 6.55935 1.1353 0.693216
1284 1 19.4021 21.6866 5.33318 0.0111341 -1.66631 -6.74151
2122 1 19.3058 19.5874 6.89987 2.44051 -2.97401 3.09297
2185 2 21.2677 21.4831 6.86261 1.19877 -3.28338 -6.10664
2127 3 21.0085 19.5905 8.55944 2.4525 5.08659 2.69555
2130 3 26.7367 19.8411 6.91883 -4.32873 -1.01657 4.30423
1232 1 26.5698 17.9022 5.36121 3.31984 4.08927 -4.79992
2128 1 23.1324 18.1185 8.59075 -3.07949 -7.17913 5.42136
1231 3 24.9101 19.769 5.42928 2.14381 0.174948 -2.41175
1288 3 22.8863 21.4677 5.20236 -6.56612 0.302352 2.21459
2126 3 22.9327 19.598 6.76701 2.3619 -1.93551 2.09204
2189 1 24.9066 21.7343 6.82286 2.54783 -1.91035 -9.15289
2188 3 22.9562 21.4679 8.63856 5.71126 3.53428 -0.804468
2131 3 24.8069 19.608 8.48048 0.292476 4.82036 -4.34389
2132 3 26.6801 17.8595 8.67956 4.42187 -2.64758 -1.48509
2192 3 26.626 21.573 8.68668 -0.641874 -1.95414 -1.18183
1267 2 3.21157 23.267 5.17831 -3.81357 -2.18986 1.15283
1324 3 1.53445 25.0721 5.15401 -5.28562 1.32843 0.0731953
2162 1 1.4049 23.5122 6.94638 -7.65741 6.34222 -2.62891
2225 2 3.15307 24.9753 6.88616 2.46576 -5.28613 -4.58135
2222 2 1.73206 26.7334 7.13949 2.65268 -0.498646 2.46742
1271 2 6.95265 23.3773 5.44226 7.22474 -0.954648 -1.28966
1328 3 5.09207 25.2901 5.14464 -3.19268 1.8511 1.16238
2166 1 5.05714 23.3255 7.01179 -6.5838 -5.44418 -2.01682
2229 2 6.97146 25.1862 6.71599 2.8915 -5.13788 -2.85726
2171 3 6.87313 23.4704 8.64168 -6.24627 -3.43227 7.88778
2226 1 5.31603 26.6215 7.19419 -1.9668 1.76321 -8.06337
1332 3 8.68958 25.0888 5.09338 -5.09169 2.08088 -4.17919
2170 3 8.81567 23.3908 7.00382 -0.359735 0.821765 -0.616937
1275 3 10.7306 23.1803 5.1804 2.89212 -2.27158 0.394967
1336 1 12.3701 25.0124 5.1638 2.80656 1.49996 -4.12239