ITEM: TIMESTEP
169800
ITEM: NUMBER OF ATOMS
13500
ITEM: BOX BOUNDS pp pp pp
-2.1242516230697106e-01 5.3732425162283782e+01
-2.1242516230697106e-01 5.3732425162283782e+01
-2.1242516230697106e-01 5.3732425162283782e+01
ITEM: ATOMS id type x y z vx vy vz
7 1 3.48809 1.64647 1.56492 6.68142 -1.0411 -2.52792
64 3 1.80328 3.61058 1.7579 -1.7858 2.39316 3.13787
902 3 1.34168 1.50969 3.38241 -4.91358 -0.467632 -7.10526
965 2 3.35696 3.29705 3.76478 -5.04076 -3.59908 -0.0262374
2 2 1.74019 1.73353 -0.135093 -5.69574 4.74398 -9.08434
5 3 3.53907 0.0654305 -0.141838 1.00811 -3.20926 2.34676
65 3 3.35016 3.39562 -0.206448 3.65833 0.741203 -7.71104
3 2 -0.0806221 1.66026 1.82225 -6.82169 -4.52569 -0.140012
905 2 3.46188 -0.194674 3.32329 -4.56301 -1.27942 1.62327
1 3 -0.192325 -0.0463431 -0.0326078 -7.18829 2.48134 5.62752
11 2 7.05222 1.69781 1.78555 0.271046 4.01198 -5.0838
68 2 5.13217 3.4462 1.78613 9.81801 -3.82502 -3.53933
906 3 5.11536 1.68705 3.53809 5.60989 -1.12736 1.25099
969 1 7.07545 3.47604 3.48902 3.39853 -3.48919 -4.79375
8 2 5.35352 0.101894 1.76642 -6.65643 -0.672652 2.49691
6 1 5.17162 1.80389 -0.0132579 -3.76595 -2.59985 -4.44091
9 1 6.86862 0.223644 -0.146909 -0.463055 -2.84806 -2.7512
69 1 6.95592 3.53361 -0.196032 6.86404 4.82118 -5.07358
909 3 7.07417 0.0256809 3.51356 -1.01895 -2.66679 4.95685
10 2 8.61059 1.6662 -0.0815396 -3.95708 1.39117 0.296098
72 3 8.70912 3.51595 1.56541 -1.60666 0.456024 0.656365
910 1 8.84546 1.8224 3.33928 2.43151 0.823724 3.02391
15 2 10.5325 1.61672 1.58339 7.1957 6.8574 -3.95488
76 1 12.1667 3.70521 1.49205 2.27264 1.29401 5.71138
914 3 12.4083 1.95539 3.59253 2.64231 6.10138 -0.133352
973 2 10.5232 3.47583 3.42509 1.21568 9.53396 -2.91982
913 1 10.4853 -0.0864964 3.56675 0.236699 -5.09936 -0.268658
14 2 12.4196 1.41343 -0.177856 -5.13923 3.03193 -5.42547
13 1 10.363 0.0205332 -0.0500538 -0.770851 -4.06035 6.76522
19 3 13.9193 1.39155 1.74469 -2.03596 5.39056 4.28957
80 3 16.0093 3.40685 1.74998 -4.08601 -4.84488 0.074596
918 3 16.0004 1.6508 3.64762 -0.453446 -0.280981 -4.98136
977 3 14.1412 3.50064 3.36192 -6.72656 -0.00154352 -1.12835
18 3 15.9327 1.5973 -0.0600878 2.49667 -1.73234 -0.179524
77 3 14.0942 3.26942 0.00333004 2.00301 1.56682 -0.205068
23 3 17.6262 1.59486 1.88929 1.87962 -2.63666 -0.378737
20 3 15.9722 -0.09045 1.81188 4.40821 -1.223 1.97178
917 3 14.2015 0.0456928 3.63424 -4.01413 6.41345 0.318293
21 3 17.5497 -0.098269 -0.0214799 7.13845 4.24946 -2.38363
981 2 18.0554 3.63362 3.48084 -3.26275 1.73553 -1.5244
81 3 17.8771 3.30472 -0.0242146 -5.10252 5.91685 1.03728
27 3 21.3179 1.64731 1.71323 -4.03331 0.939144 0.920248
84 3 19.7891 3.525 1.75889 -4.45413 2.45344 2.70915
922 3 19.4459 1.67065 3.37021 -4.20591 -4.64884 -1.82124
985 2 21.2923 3.59445 3.52444 -5.01463 6.93785 1.99512
22 2 19.6524 1.69046 -0.0632129 0.529639 0.93263 -1.80547
85 1 21.5174 3.42759 0.0436603 -0.66736 0.745021 -5.55261
925 2 21.3148 -0.120975 3.36032 6.56159 -0.514232 -2.36039
31 2 25.0657 1.67797 1.66434 -4.12033 -2.46782 -1.10286
88 3 23.4052 3.47617 1.72054 8.1685 -4.17721 1.37816
926 3 23.1109 1.52254 3.38388 -3.55002 -0.547239 -3.69264
989 2 24.8413 3.20255 3.45658 0.168995 -4.001 -0.62809
26 1 23.1642 1.65292 -0.0437707 -2.25099 -5.02621 2.60355
929 1 24.823 -0.0235559 3.32863 1.7248 -2.19464 3.0628
89 1 24.9851 3.25039 0.035518 -10.9586 0.0815758 -0.0695739
92 2 26.7034 3.65478 1.691 0.842855 -8.71224 -3.72628
930 1 26.7154 1.73827 3.27527 -6.24955 -6.54172 -0.545638
67 2 3.52733 5.34676 1.94798 -0.619441 2.31952 6.51968
124 1 1.83105 7.05295 1.64072 -0.773955 -7.34587 0.109784
962 2 1.5814 5.37016 3.6859 -7.36764 2.30502 3.17737
1025 3 3.50544 6.85271 3.45776 1.22487 -3.97473 -1.98951
62 2 1.48417 5.24041 -0.10451 6.3338 -1.18894 1.33226
1021 2 -0.132533 7.33729 3.54832 0.433579 1.66099 3.44626
121 2 -0.121692 7.56671 -0.0856114 -2.9899 0.64355 -3.42815
63 3 -0.102822 5.61679 1.7809 7.17195 -4.02786 -7.43828
125 3 3.38863 6.92935 -0.192525 4.37723 3.31467 2.28614
71 2 7.07084 5.25259 1.6156 5.79303 1.04018 2.36709
128 3 5.31802 7.17594 1.58135 -3.74669 3.77137 -3.68231
966 1 5.56466 5.34454 3.40753 -2.54469 4.73279 -3.47619
1029 3 7.13607 7.0503 3.2846 1.41429 5.47118 -1.05711
66 2 5.18345 5.26663 0.116531 4.73276 0.280298 -3.21381
970 2 8.68542 5.30297 3.24494 4.55105 -4.05451 -1.78083
132 1 8.63531 7.48301 1.26335 -4.78616 0.0511027 5.55318
75 1 10.4488 5.30005 1.30544 3.95037 -4.40905 1.97298
136 2 12.366 7.14431 1.39427 -1.73022 -6.42402 -0.637694
974 1 12.2794 5.12623 3.24885 0.697387 1.92973 -11.6042
1033 2 10.2657 7.01285 3.31049 -7.4093 7.68606 0.463165
1034 1 12.3952 8.72567 3.42401 -0.621709 -4.3462 -0.120577
79 1 14.2331 5.37319 1.6887 -4.27574 6.56317 7.79749
140 2 16.0811 7.1285 1.40082 5.70633 8.07651 -2.40922
978 1 15.9744 5.47337 3.05977 -3.99684 -1.52537 -2.91885
1037 2 13.9468 7.06411 3.30294 0.569658 3.31506 2.97612
1041 3 17.5858 7.17566 3.27339 -1.16825 3.85132 2.01163
78 2 15.9008 5.00818 -0.109826 1.75177 6.04253 0.101288
83 3 17.6427 5.28786 1.55092 1.92131 -3.5465 4.15045
137 1 14.3225 6.94453 -0.12927 1.50632 -5.72725 3.43321
87 1 21.3656 5.39753 1.52943 -1.78114 -3.28284 3.84871
144 3 19.4299 7.02074 1.73453 -1.20729 -10.2595 7.07617
982 3 19.437 5.38046 3.43253 0.139789 -5.80792 -0.427568
1045 3 20.9082 7.1288 3.36387 -1.71514 3.72042 -1.68828
82 2 19.7429 5.23545 -0.15148 0.454212 4.71802 2.09493
91 2 24.8043 5.43657 1.61396 3.81108 0.575572 -3.39156
148 2 22.9055 7.19383 1.86517 2.44158 4.18432 4.6241
986 1 23.1702 4.96701 3.3022 -0.139585 -0.276117 6.53806
1049 2 24.8821 6.93591 3.28263 1.48614 0.105301 2.30758
86 1 23.0485 5.29056 -0.0491926 3.24743 1.73205 -0.17679
149 1 24.9478 7.03716 -0.00751751 0.178732 -3.42754 1.63235
990 1 26.7401 5.33584 3.50597 5.71729 -4.22707 2.8979
151 1 25.0257 8.71807 1.86385 -2.32193 1.28996 -5.27074
127 2 3.33854 8.8206 1.73222 -6.06316 7.22753 3.0274
183 3 -0.199151 12.3705 1.78374 1.21567 8.14344 -3.75548
123 1 0.183284 9.06595 1.82026 -2.42071 4.45497 -4.03162
1081 2 -0.152376 10.5457 3.56747 -0.656713 0.424681 0.062585
1022 2 1.88043 8.8382 3.31315 -1.6485 -6.70933 -6.85094
184 1 1.5758 10.7501 1.49004 4.07578 6.80977 -0.794084
187 2 3.2219 12.4121 1.68616 4.02965 -0.977525 -2.218
1082 2 1.57011 12.4624 3.6541 -3.21797 6.04445 -1.24611
1085 1 3.64627 10.4195 3.50331 -0.683196 2.55653 -2.488
182 2 1.42839 12.602 -0.203285 -4.31082 0.130845 -1.11344
185 2 3.40685 10.7805 0.00348576 -1.48221 3.32454 -1.53922
1026 3 5.41979 8.92377 3.47326 -0.0331442 5.06449 -3.48385
131 2 6.9267 8.89811 1.39607 -3.17077 -2.34201 -2.9843
188 1 5.25598 10.6301 1.54426 -2.08738 0.778257 -1.46549
191 2 6.87601 12.4799 1.35534 -0.914438 2.96053 -1.1457
1086 2 5.07205 12.6243 3.28387 2.21042 -1.54963 -1.64847
1089 2 7.02273 11.1742 3.33769 2.06688 1.51435 -3.186
186 2 5.19378 12.5537 -0.0614252 -6.0927 -0.269254 -0.677093
192 1 8.57371 10.854 1.58841 2.95636 -0.422434 -3.37464
1030 1 8.4359 9.08361 3.42347 4.81281 1.90834 7.50886
130 2 8.64361 9.19395 -0.0270944 -0.147831 -5.76851 -1.65622
1090 2 8.81373 12.7684 3.46113 2.75587 5.97375 -0.944634
135 3 10.4968 8.99909 1.68831 4.66364 -1.44457 2.28256
195 2 10.5326 12.4509 1.64557 9.32308 3.92226 4.38157
196 1 12.3389 10.5746 1.9132 -3.3366 -3.7007 -0.470476
1093 2 10.632 10.9095 3.3522 7.3336 -3.88482 11.0417
1094 3 12.2697 12.5562 3.40048 -0.824998 2.32651 0.574739
190 3 8.83312 12.6389 -0.191827 -1.6387 4.48963 -1.4059
193 3 10.4137 10.6329 -0.159197 3.36803 4.40861 0.480143
194 3 12.1454 12.7597 -0.108061 -2.07404 -1.17051 1.04774
1038 2 15.6366 8.9717 3.18339 4.45974 -1.52982 8.05992
139 3 14.1746 8.78692 1.35184 3.6311 -3.00844 -5.56383
199 3 14.0271 12.4358 1.48808 -1.78834 2.27911 -1.19228
200 1 15.9658 10.6948 1.63376 3.5488 2.05224 -3.57008
1097 2 14.2124 10.7492 3.2691 9.2751 3.98528 6.54815
1098 1 16.2357 12.4611 3.30811 -2.30136 3.27151 3.22246
1101 1 17.7071 10.5255 3.31565 0.225071 -4.06449 1.1389
143 1 17.4925 8.95848 1.70232 -2.16569 2.82925 -0.0560532
203 2 17.7756 12.3939 1.55369 3.85826 2.26983 -3.17482
197 3 13.8866 10.9543 -0.146843 -0.6173 3.85389 5.44301
1042 2 19.4671 9.14195 3.56841 3.53178 -1.78974 1.50245
147 1 21.1771 8.81339 1.48295 -0.255359 -8.72431 0.844261
204 3 19.4011 10.8285 1.59867 4.6721 -4.34392 -5.5991
207 2 21.1098 12.3226 1.46549 4.73063 -0.912192 -1.7506
1102 1 19.5885 12.0815 3.57989 3.30991 3.17503 -1.59907
1105 3 21.2213 10.495 3.27051 -0.133015 4.53187 -7.42165
142 2 19.4816 8.92764 0.0323608 2.22948 -0.220363 0.475035
1046 1 22.9774 8.872 3.5886 -4.38942 4.34649 0.076194
146 2 23.0899 8.89253 0.127246 -2.57549 5.21276 -1.11554
208 2 23.1452 10.6393 1.60923 -0.0142636 -0.767644 4.22873
211 1 24.6994 12.1801 1.72257 4.10963 2.46781 -2.18935
1106 3 22.9522 12.461 3.38187 -0.587896 2.15303 5.33644
1109 3 24.8269 10.7016 3.60996 -1.38945 0.28693 -3.80355
212 2 26.6349 10.562 1.88297 -0.850756 -2.79803 1.32788
210 1 26.7628 12.2296 -0.046029 5.29576 0.114714 -6.10711
1110 2 26.5884 12.5612 3.41239 0.065065 -0.0294891 1.91438
206 1 22.9741 12.5595 -0.187658 -6.24868 -10.02 -5.36931
150 2 26.5393 8.95004 0.0391518 -1.20805 2.41011 2.67361
244 2 1.55791 14.1958 1.58036 1.84632 1.45273 -0.524115
247 2 3.46212 16.0597 1.50814 7.77724 2.3051 -9.07022
1142 1 1.24378 16.1231 2.96972 -7.73235 -3.92052 -5.75097
1145 1 3.05889 14.493 3.69065 -1.10871 1.9586 2.59471
1205 3 3.34884 17.6503 3.5039 2.03414 -2.15115 1.49165
245 1 3.4351 14.4661 -0.136601 -0.666094 4.25577 4.95457
248 1 5.14182 14.3327 1.47034 0.255989 0.552782 -2.34486
251 3 6.77384 16.0466 1.5712 -4.55999 2.27743 1.39257
1146 2 5.13309 15.8529 3.46307 -0.519129 -1.05898 -2.04072
1149 1 6.95266 14.4337 3.33422 -1.54192 -1.23696 0.329965
246 3 5.14196 16.0435 -0.16902 -0.57312 -0.564574 -3.52454
1150 2 8.65173 16.2053 3.41871 4.25878 9.03999 -9.33301
249 3 7.00354 14.269 -0.1247 2.07485 0.327055 -2.95357
250 3 8.77504 16.1824 -0.184917 2.72864 -0.646145 -1.28008
252 3 8.8014 14.4213 1.56104 5.1857 -0.652098 4.78684
255 3 10.3668 16.3268 1.84056 -0.43578 -0.522272 -2.38358
256 1 12.3841 14.3271 1.70923 0.558376 7.42647 0.157601
1153 3 10.5662 14.5442 3.47423 -4.70263 4.64382 -4.17306
1154 3 12.5879 16.2244 3.21324 -3.25766 2.75403 -10.673
254 2 12.3546 16.0671 0.0771831 -1.48505 -1.681 -3.50697
253 3 10.5163 14.5759 0.0291242 -3.59134 -4.72554 -0.0477114
259 3 14.324 15.8496 1.62197 1.78671 5.09442 -0.615581
260 3 16.2421 14.1441 1.34211 0.874119 0.676633 -1.19392
1157 2 14.3502 14.4317 3.35982 -3.53543 -6.55983 -1.56486
1158 1 16.23 15.8111 3.44372 6.49236 1.9724 4.24416
258 3 16 15.9942 -0.173794 -7.58249 1.27832 -3.92353
320 3 16.1172 17.6334 1.83457 2.55952 -3.63213 1.71117
257 3 14.1217 14.2316 -0.0847782 3.27331 -3.17291 4.28628
317 2 14.3231 17.7429 0.0130041 3.00162 0.626332 1.3368
261 3 17.6916 14.2048 -0.159829 -2.93287 2.64502 -0.771057
1161 1 17.9968 14.1505 3.40867 -1.63949 1.75017 0.988526
263 2 17.859 16.0126 1.60126 2.00307 -0.679907 -4.3505
264 3 19.8056 14.2846 1.49079 1.59692 -3.56934 0.820132
267 3 21.3885 16.178 1.69234 -2.91673 -0.402361 3.30272
1162 1 19.7042 16.1141 3.44399 -6.37959 -3.39918 0.82612
1165 3 21.3563 14.1419 3.37951 -5.73025 1.94035 -0.837056
265 1 21.5355 14.1982 -0.0424856 1.57964 1.16276 6.07271
324 1 19.5374 17.7648 1.71206 3.26743 -0.388525 -3.51311
1225 2 21.3509 17.7565 3.59037 -5.0081 -4.35205 1.50986
268 2 23.0566 14.4109 1.62761 -1.03491 8.979 4.10441
271 1 24.7924 16.1706 1.56907 -2.38369 -4.70463 8.51779
1166 1 23.1616 16.1487 3.44038 -8.73276 -2.5949 -1.20914
1169 3 24.7335 14.2803 3.31863 -2.2445 -1.32027 -0.796732
272 3 26.6043 14.1748 1.47076 -5.0613 0.939071 4.15442
269 2 24.9467 14.1091 -0.131642 5.59855 -1.91265 -5.50438
270 2 26.6974 16.1824 -0.143213 -1.05325 -0.046351 -1.35151
266 3 23.2275 16.1616 -0.137026 -5.02372 -0.830626 1.98818
303 2 -0.092476 19.852 1.74753 0.669061 2.57073 4.85558
301 2 -0.0320625 17.786 -0.133734 0.377047 -0.575041 -6.63656
304 1 1.68231 17.9569 1.4065 -5.07376 0.122626 5.79682
307 2 3.38106 19.7317 1.65006 -1.35387 -6.16556 1.39344
364 1 1.83933 21.3069 1.65139 4.28158 2.79652 -3.27611
1202 1 1.67462 19.4908 3.25983 0.535588 1.21579 4.37879
1265 2 3.37669 21.4746 3.64663 2.04069 2.21004 -4.25001
361 2 -0.135654 21.6054 -0.222144 -1.76806 2.74492 -8.91183
302 3 1.49903 19.8087 -0.183879 3.26124 0.570421 -2.40597
308 3 5.06066 17.8668 1.8462 -0.0942474 10.1352 -4.91103
312 3 8.74628 18.0243 1.54634 0.245825 5.7953 -0.466609
1209 3 6.65848 17.9334 3.40957 -2.38871 -7.42601 2.82042
309 3 6.94177 17.8427 -0.09953 -1.10209 -0.941452 -5.35258
311 3 7.08628 19.7254 1.7813 3.10103 4.89455 -2.23648
368 1 5.41483 21.4826 1.5216 -5.73136 5.62594 -4.04215
1206 3 5.2359 19.7367 3.67524 4.88793 -5.05581 -5.44233
1269 3 7.00537 21.5957 3.51403 -0.704236 0.340689 -2.05221
369 2 6.97984 21.829 -0.219719 2.2995 4.32852 -4.8292
372 2 8.75181 21.7121 1.85612 4.11068 2.46855 0.10282
310 3 8.61238 19.7325 -0.0177732 7.2473 4.3903 -5.04189
1210 3 8.79815 19.7262 3.29177 5.34488 -2.66205 2.9916
316 2 12.3444 17.9783 1.57696 0.0676597 2.96601 4.5073
1213 3 10.5512 18.0199 3.56201 -4.54396 3.26774 -0.783955
315 2 10.613 19.5107 1.64221 -2.20244 2.37357 -2.40927
376 2 12.3337 21.6706 1.72543 0.635715 -2.16753 -1.94709
1214 2 12.2182 19.893 3.50447 1.59012 2.70629 0.517159
1273 1 10.3906 21.7671 3.42099 -1.0953 -3.03192 -4.97419
373 3 10.4873 21.601 -0.00661863 -0.601569 -2.12177 -0.0989291
314 1 12.2328 19.659 -0.0458867 -2.80092 1.7394 -0.945313
313 1 10.7157 17.8399 -0.180953 -1.70515 -1.54905 -1.14907
321 3 17.7554 17.8069 -0.142959 1.41898 3.24991 0.753982
1217 2 14.3316 17.8493 3.4138 5.83286 1.55496 -2.83936
319 3 14.096 19.8983 1.84408 5.47361 -2.20829 -2.41762
380 1 16.1727 21.6041 1.85775 2.70597 -0.942041 -2.18676
1218 2 16.093 19.7482 3.50684 6.89449 0.921319 -8.99403
1277 1 14.2357 21.4834 3.51527 6.32558 -6.42849 -4.26941
377 2 14.1225 21.6709 -0.0657773 3.06681 6.79658 2.11587
318 2 15.9916 19.5978 0.244315 1.1575 -1.88968 -2.50907
323 1 17.7195 19.3704 1.75094 4.70045 1.98624 3.75661
381 3 18.0117 21.4126 0.0844683 8.00419 -0.663746 -3.28097
1281 3 17.8703 21.4838 3.3381 2.82722 6.07421 -0.0572227
1221 3 17.7836 17.7723 3.45842 -2.17167 -5.27978 0.0214894
327 3 21.2044 19.5393 1.57731 -5.78644 5.59003 1.08944
384 2 19.6058 21.2218 1.88021 0.725689 -1.22795 1.82998
1222 2 19.4821 19.616 3.45999 3.45 -0.218424 -5.40587
1285 1 21.5652 21.3209 3.40802 3.55574 -0.336354 -5.53215
385 3 21.3388 21.4006 -0.020643 0.117039 1.42502 -3.43707
322 2 19.5264 19.2741 -0.166211 1.6846 -2.26882 -6.66932
328 2 23.215 18.0851 1.85119 -3.27855 -6.72493 -2.08623
1229 2 25.1887 17.8723 3.22498 -0.173134 0.387385 -5.35001
331 1 24.9333 19.6273 1.36097 2.68239 3.69564 2.14327
388 2 22.9475 21.4487 1.64812 -1.8374 -3.26168 -6.1359
1226 1 23.3008 19.5771 3.34617 1.07647 1.62723 3.58942
1289 2 24.9842 21.5417 3.48794 0.368923 3.98785 1.4564
389 2 24.7957 21.6952 0.0622919 2.30769 2.63435 2.04669
332 2 26.5567 17.9581 1.3866 -5.42724 0.988935 -1.18944
1230 1 26.7134 19.8219 3.3078 -1.41143 0.288891 4.79008
330 1 26.6647 19.8581 -0.073271 -3.86738 -9.32601 -1.96321
367 1 3.69171 23.322 1.74039 1.8153 -5.14515 0.428371
424 2 1.56874 25.1491 1.6215 11.5033 -2.24325 0.130525
1262 1 1.63383 23.0879 3.35616 0.250817 1.17405 -4.44378
1325 3 3.28149 25.0144 3.53289 0.920202 -7.15959 -0.392679
425 3 3.39374 25.1423 -0.120544 2.64881 3.97219 2.25852
362 1 1.61763 23.2683 0.0977459 2.26731 0.378948 -2.75397
363 2 0.016937 23.2803 1.74248 -3.24939 -4.44674 -0.0695934
421 1 -0.205179 25.0469 0.156257 3.01034 4.25349 1.6289
371 1 6.91403 23.1777 1.51022 3.2378 -3.39547 1.44103
428 2 5.07756 25.0656 1.62685 -2.64366 0.453503 2.67154
1266 2 5.13664 23.2392 3.47454 -1.11098 0.619211 2.43712
1329 1 7.00767 24.9975 3.39796 0.656322 1.69073 4.10628
429 1 7.19281 25.0304 -0.0408159 -0.652748 -0.299314 -7.57466
370 1 8.73777 23.1892 0.121193 -1.34856 6.58471 4.85706
1270 2 8.90889 23.4057 3.34568 -1.22291 -5.7694 -2.40674
432 2 8.89746 25.0334 1.62351 0.613593 7.54567 -0.22961
375 1 10.7354 23.5093 1.62487 5.37408 -0.571101 -1.04448
436 2 12.4063 25.1444 1.92063 -0.577952 9.83187 0.119698
1274 2 12.3977 23.5496 3.42022 3.43751 -2.19622 0.0282111
1333 1 10.5135 25.2216 3.48903 -2.5964 10.0384 3.51319
374 3 12.4967 23.5056 -0.0817228 6.06979 1.49578 2.01756
433 3 10.6613 25.2231 -0.193278 6.61728 1.02554 3.72491
379 1 14.1892 23.3694 1.80756 0.457052 -3.25305 1.70582
440 3 15.951 25.2344 1.64355 4.90012 -0.384002 1.90635
1278 2 15.971 23.393 3.47673 -2.94936 3.89771 3.38082
1337 1 14.3 25.0625 3.35156 -0.161551 1.8768 -0.828135
437 3 13.9681 25.2635 -0.142562 1.57197 -1.96432 3.71552
383 2 17.7595 23.1549 1.85464 4.23884 1.47354 -1.23566
378 3 15.9984 23.0157 -0.0525922 -0.16936 2.81395 -2.66567
1341 1 17.7922 24.9935 3.80914 2.83648 -3.1046 1.61406
441 3 17.7906 25.0497 -0.0405741 -0.692634 -7.25841 5.57524
387 1 21.2307 23.1173 1.82796 -2.28989 -1.37405 -10.7869
444 2 19.681 25.1433 1.71075 -1.16149 -6.93631 -5.82446
1282 2 19.5973 23.2611 3.46415 3.04852 -0.728923 0.706497
1345 1 21.1423 25.3152 3.58687 -1.48025 3.93945 -3.75783
445 3 21.2091 25.2304 0.000534928 -0.593352 0.486799 0.420652
382 3 19.7072 23.2398 -0.12274 3.98661 1.07886 2.51039
391 1 24.6468 23.1332 1.80111 -6.09919 0.847837 -0.227827
448 2 22.8858 25.4202 1.87235 -7.87469 -5.00046 1.3599
1286 3 23.0111 23.5664 3.44201 3.87167 2.52761 3.40071
1349 2 24.9327 25.3104 3.18665 1.28085 5.38342 -2.14403
386 3 22.8312 23.5764 -0.00566579 4.28577 -2.85691 2.06668
449 1 24.8108 25.1023 0.194212 -2.90409 -6.07311 -0.60974
1290 1 26.4939 23.1358 3.27917 -8.34192 1.01279 -3.96161
907 3 3.54499 1.58011 5.34874 -6.46641 2.25872 4.96111
964 1 1.33794 3.62992 5.36162 -2.52369 4.09798 0.668462
1802 3 1.78096 1.79511 7.07844 -0.19977 -3.99976 3.5837
1865 2 3.48232 3.30842 6.96858 4.61947 8.84946 6.16425
1805 1 3.44062 -0.179211 7.00873 2.83344 -5.92458 0.00203986
1801 3 -0.116969 -0.0291549 6.99441 -5.13056 -1.74506 5.41629
1807 3 3.52803 1.68859 8.75756 3.56978 -1.17856 4.09237
1809 3 7.09164 -0.0748934 7.29522 1.03269 -1.70472 -4.78747
911 2 7.22194 1.95404 5.21469 4.98759 4.03767 -2.0437
968 2 5.47983 3.55278 5.28411 3.92066 6.03841 -2.22349
1806 3 5.52815 1.73004 6.88967 2.91881 -4.27046 -1.4313
1869 3 7.10871 3.78553 6.88867 -9.82059 0.189993 1.19577
912 3 8.73452 -0.115311 5.21527 -0.319258 -1.96955 0.588067
1868 1 5.11053 3.37908 8.60506 5.94944 1.25979 -3.082
1811 3 7.13073 1.8929 8.68307 2.74831 4.72701 -1.38769
908 3 5.51957 -0.0558283 5.26088 -3.11751 5.99102 4.35847
972 1 8.84531 3.55862 5.13774 4.47079 1.44106 -4.35463
1810 2 8.86384 1.64779 7.11752 -2.4264 -4.41888 -10.6633
915 2 10.317 1.86309 5.17963 1.02585 -5.59469 1.09375
976 1 12.5285 3.66053 5.27518 -3.11202 -1.86363 -0.781169
1814 1 11.9831 1.77599 6.81944 -0.637948 -1.39071 -0.153068
1873 2 10.5276 3.76431 7.08833 0.479713 2.82808 -1.25529
916 2 12.2341 -0.202913 4.91369 0.616712 -2.23444 -3.66592
1813 3 10.497 -0.0050992 7.06579 5.06451 -0.391197 -4.94897
1872 1 8.97112 3.80657 8.66732 -1.2211 -5.98974 2.71448
1816 2 12.2586 -0.0157439 8.77261 -1.31998 -1.78147 -0.319717
920 2 15.8676 -0.108742 5.30382 0.207664 -1.40666 -2.4342
919 2 14.1971 1.91099 5.25543 -0.37464 0.00370001 -2.18088
980 3 15.8196 3.66373 5.24293 -4.61818 2.19923 5.06868
1818 3 15.8465 1.67975 6.81911 1.9563 2.04022 6.18528
1877 1 13.9244 3.31586 7.15903 3.06794 -2.73157 -1.02491
1820 1 16.0152 0.0871013 8.75101 1.03033 -3.61213 0.669899
1819 2 14.0148 1.76108 8.68105 -3.60457 5.86538 -3.27198
1817 1 13.8946 0.042419 6.9761 1.79861 1.6207 -2.61832
1881 3 17.6067 3.65047 6.80958 3.46239 -3.08139 9.72124
1880 2 16.208 3.5022 8.72241 -3.85432 -3.86734 -7.76611
1823 1 17.9849 1.79498 8.53208 -0.791327 1.94106 3.10109
923 3 17.807 1.98364 5.08934 -3.00967 6.85337 -1.39399
927 2 21.4314 1.6957 5.12782 3.9524 3.20406 5.80479
984 1 19.7924 3.60927 5.14506 0.956631 -5.28472 1.24729
1822 2 19.7496 1.66192 6.94093 -1.55912 -2.00134 2.37816
1885 3 21.4173 3.45872 7.21261 -0.557125 3.54822 -5.00231
1825 1 21.1531 0.0631613 6.89452 0.979312 0.714981 5.54172
1884 3 19.5143 3.66288 8.65099 -3.44813 -5.47733 -0.14987
924 3 19.3323 0.0328128 5.13139 -2.38467 -2.55694 7.67283
1829 1 25.2144 0.0182846 7.22905 -7.09715 -0.551409 1.83471
931 2 24.8881 1.48306 5.20812 0.779176 -3.22618 -1.67954
988 3 23.1631 3.40618 5.0949 0.657987 3.58201 0.59545
1826 1 23.1956 1.4739 6.88309 -1.84475 4.76214 -0.551077
1889 1 25.245 3.2951 6.99843 -1.85522 1.09466 -4.77303
1888 2 23.2445 3.41297 8.74231 -0.420321 0.00970947 -0.0362886
992 1 26.7592 3.59897 5.21367 6.17373 5.50574 -3.49863
1831 2 24.9961 1.82199 8.74369 -1.42911 5.12902 0.0284527
928 2 23.2905 -0.144876 5.23975 -1.25212 4.07137 0.453132
967 1 3.41026 5.1656 5.38065 -2.67155 2.74836 -2.00322
1024 3 1.60799 7.08513 5.22031 -4.02082 -7.95021 0.649374
1862 2 1.29979 5.24071 6.93086 5.12468 -1.53761 -1.04274
1925 3 3.25595 6.94523 6.86811 3.00847 1.56116 -1.62404
1867 3 3.25502 5.03546 8.57817 0.201662 3.14323 1.91598
1924 3 1.48356 7.03397 8.64294 -6.28193 3.08557 1.1706
971 2 7.05741 5.42646 5.20172 -5.61235 4.61509 -3.1389
1028 2 5.35077 6.97007 4.99791 -6.87252 -5.52895 1.81287
1866 3 4.97129 5.38718 7.08123 -1.72322 -5.43755 0.0374125
1929 1 6.81542 7.24062 7.12611 0.870929 -5.60822 -0.0201592
1032 1 8.70875 7.26925 5.42832 -1.11544 0.566455 2.68404
1870 2 8.86625 5.66772 7.4835 -2.4846 -3.14914 1.22607
975 3 10.4591 5.2994 5.17769 1.19019 2.07153 -1.85859
1036 1 12.2769 7.07757 5.31766 7.15848 0.572914 1.93321
1874 2 12.3896 5.21918 7.2402 -1.96005 -3.04277 -4.24931
1933 1 10.5861 7.0537 7.04145 0.572269 -4.13106 0.425955
979 2 13.9596 5.44353 5.01787 1.57478 -0.029106 -5.43633
1040 3 15.7038 7.07634 5.22089 -0.625683 0.914233 5.94026
1878 3 15.7804 5.85299 7.07411 -5.39794 6.27979 -6.28541
1937 1 14.0152 7.46179 6.92117 5.26952 2.7686 1.05672
1941 3 17.6609 7.14561 7.0474 7.89631 -7.74979 -1.54431
983 3 17.569 5.51099 5.0195 -5.93285 0.689073 -0.751531
1879 1 14.3224 5.00184 8.66598 6.96719 -3.75166 -0.155815
987 3 21.4917 5.24946 5.3762 -2.98977 6.2002 3.16317
1044 3 19.4754 7.19076 5.30038 -5.51512 6.19113 5.62561
1882 1 19.6661 5.18107 7.08904 -5.59763 -3.00337 8.36785
1945 3 21.6316 7.03749 7.21894 -3.69984 1.34775 -3.5604
1047 3 21.2546 8.69973 5.44461 -2.45863 4.27316 1.48269
1052 1 26.7001 7.06724 5.29731 -1.44139 2.83334 -8.64728
991 3 24.9079 5.15234 5.21855 1.81261 -3.51441 0.446186
1048 2 23.1547 7.0257 5.04114 0.719032 -3.07783 -3.94407
1886 1 23.4468 5.10739 6.93624 0.727094 2.51038 4.5038
1949 2 25.0036 7.03505 6.91616 0.136814 2.94828 -0.452857
1051 1 24.9487 8.71555 5.06393 -1.44633 -5.17254 -8.80555
1890 2 26.7128 5.2437 7.07753 -4.75806 -6.34037 6.38418
1927 2 3.40176 9.07815 8.7423 -1.50985 0.120866 -0.337953
1027 2 3.29431 8.80698 5.52878 2.20283 -2.62547 -6.76569
1922 1 1.5101 8.94637 7.31897 0.421026 -5.46595 1.16982
1084 1 1.78811 10.5165 5.11845 2.20217 3.32264 0.12437
1087 1 3.13261 12.5771 5.25446 2.54785 -0.185627 -0.85658
1982 2 1.57733 12.4056 6.89661 3.05201 -1.21055 -1.17305
1985 3 3.50829 10.8687 7.04662 -4.84004 0.630714 -2.15448
1984 2 1.51496 11.0937 8.75891 3.57397 -5.17069 10.5906
1981 3 -0.19786 10.8076 6.82982 -0.36574 -5.62103 1.98088
1083 1 -0.174271 12.4236 5.06489 -1.60564 -2.52192 1.24746
1926 1 5.04026 8.79489 7.04101 -4.78232 3.63293 -4.72635
1031 2 7.06803 8.95777 5.32302 -4.64385 2.17246 2.60512
1088 2 5.15223 10.9858 4.89318 1.27803 -1.52962 1.56445
1091 1 7.06937 12.6411 5.33217 5.4325 -1.80681 4.25128
1986 2 5.33773 12.5815 7.05413 0.588775 -0.513797 -0.909363
1989 1 6.88865 10.6349 6.8143 -0.221391 0.719017 -0.197041
1990 2 8.54721 12.6944 6.97091 -0.235971 5.45634 -0.749744
1930 2 8.57277 8.8285 7.00514 1.56709 -2.6437 1.6657
1992 2 8.60062 10.9413 8.777 1.44686 0.566238 -0.239471
1092 1 8.74583 10.8635 5.02477 -7.047 2.81221 -2.49882
1035 2 10.5528 8.7912 5.01484 2.63224 0.882659 7.15417
1934 3 12.1239 8.88773 7.01375 -5.59116 -1.18741 -0.398445
1095 2 10.7061 12.7215 5.4936 -6.2 2.05537 -1.18691
1096 2 12.0289 10.6256 5.21984 -0.075608 -0.786983 3.11382
1993 3 10.3076 10.71 6.95893 -5.08552 -5.75915 2.42875
1994 1 12.4759 12.4126 6.98426 -4.45009 4.92707 -2.22512
1996 2 12.2356 10.6127 8.65541 3.10021 2.61521 -0.499845
1935 1 10.8148 8.86651 8.7487 -0.828201 1.88307 2.00009
1043 3 17.5245 8.84012 4.89359 -2.39268 7.03898 -5.11665
1039 1 14.0087 9.07372 4.99232 3.17537 -11.1262 -1.00383
1938 2 15.6813 8.8484 7.05558 -7.92953 -2.77163 -1.73497
1099 3 13.8531 12.5214 5.07582 -1.68593 -3.88778 0.0343024
1100 2 15.8612 10.7043 5.08136 -3.23283 -3.60071 1.99875
1997 1 14.066 10.6726 6.98399 0.340616 0.206813 3.42703
1998 1 15.9164 12.4622 6.96036 3.55705 -2.3906 3.53734
2001 1 17.5817 10.5894 7.04171 2.12989 -0.644147 -0.832834
2000 1 15.7701 10.6568 8.61529 -3.40577 4.56633 3.36881
1942 3 19.4925 8.85793 7.08506 1.28201 1.62141 -0.786293
1103 2 17.811 12.1382 5.00725 -6.43237 0.544975 1.51205
1947 3 21.3819 8.83778 8.66183 4.96595 -4.33342 -4.34889
1104 1 19.3753 10.5876 5.47806 3.70955 2.51105 -1.30362
1107 3 21.4119 12.3118 5.15868 6.73543 -5.21405 -2.85005
2002 2 19.4752 12.2244 7.00459 1.03233 -0.491175 -2.02339
2005 3 21.3578 10.7525 6.99136 -1.03875 -9.23928 -3.43496
2004 3 19.5115 10.5464 8.60746 -0.297546 1.40837 -1.15768
1946 1 23.1962 9.07349 6.86666 -5.4841 0.743741 -1.00635
1108 2 23.0037 10.6521 5.18822 -2.10564 -1.82305 5.19872
1111 3 24.7983 12.5813 5.33022 1.45559 1.56643 6.47931
2006 3 23.4037 12.637 7.11318 -9.3247 3.02559 -1.26693
2009 2 24.8672 10.8131 7.08009 -2.23388 1.10529 5.87293
1950 3 26.6053 8.77826 7.11334 3.35808 -0.896238 -1.10894
1112 3 26.6545 10.7727 5.27756 -6.08052 3.21693 -0.995651
1144 3 1.18189 14.2991 5.39004 -4.7967 -2.08768 -2.50012
1147 1 3.22429 15.9295 5.42678 -0.182964 -4.93867 3.91724
2042 3 1.71675 16.018 7.05406 2.87284 2.08146 -1.39881
2045 2 3.53741 14.1877 6.96303 6.68929 2.78435 -1.03793
2044 3 1.40238 14.1302 8.60078 -4.2469 -3.65006 -1.91962
2105 1 3.33008 17.7281 6.99007 -2.82039 -3.05985 4.12602
1148 3 5.27556 14.1434 5.04988 -3.86566 2.76438 1.05052
1151 1 6.92823 15.9168 5.00217 -0.334879 0.7 -0.234069
2046 2 5.08323 15.8722 6.95173 5.64154 -2.51791 1.53094
2049 2 7.03755 14.5005 7.00758 3.55177 0.443093 -1.68228
2050 2 8.70235 16.0787 6.83849 7.71927 -0.72609 2.2596
1208 3 5.21512 17.48 5.24207 -2.01047 -6.35808 7.02605
2051 1 6.93599 16.035 8.7199 -3.19428 1.63767 -4.05305
1152 1 8.77711 14.2635 5.18653 -3.0296 1.46689 2.61269
1155 2 10.6519 16.1689 4.9895 0.893424 -4.65578 -7.31909
1156 2 12.4909 14.4696 4.98553 -0.521603 -1.49231 4.3303
2053 1 10.4979 14.5488 6.9327 1.61187 4.5213 1.72586
2054 1 12.5347 16.0229 6.94231 0.383222 -2.33438 -0.978768
2056 2 12.2987 14.2261 8.70768 -0.484767 6.31687 1.81268
1159 1 14.4083 16.1376 5.23544 -3.85152 -0.575407 1.29247
1160 2 16.0551 14.0619 5.01661 2.43267 2.2967 -5.62219
2057 1 14.4326 14.4064 6.85936 -2.28307 -4.67347 -0.233364
2058 2 16.138 16.1076 7.14762 3.49823 3.85296 2.97921
2061 1 17.8309 14.2075 6.96398 6.28277 -2.94915 4.20158
1163 1 17.8521 15.9068 5.14637 -1.89375 3.63021 -0.0744534
1164 2 19.6447 14.2159 5.16092 1.16698 2.17053 -0.0495868
1167 3 21.5774 16.1895 5.10637 -1.41821 -0.405909 -0.221244
2062 1 19.6356 15.9732 6.9771 -0.410541 2.59681 -1.34385
2065 2 21.2449 14.0209 6.96059 -5.71445 2.42862 -0.534968
2124 2 19.5423 17.5897 8.72054 2.06841 1.50352 -0.215313
2125 1 21.1968 17.6614 6.89573 -2.2601 5.07269 -0.250317
1224 2 19.701 17.6949 5.29238 3.24848 -4.51814 2.91202
1168 1 23.2838 14.358 5.207 0.83419 -6.85708 3.77843
1171 3 25.1602 16.1444 5.23898 11.0297 -3.28439 -2.18609
2066 2 23.2449 16.1721 7.15831 -7.14373 -5.37214 -0.317208
2069 3 25.0102 14.3516 7.0802 -3.553 -0.633356 1.52259
1172 3 26.6021 14.4381 5.03996 -0.289596 -3.26784 -3.72545
1228 3 23.216 17.7646 5.26786 -1.73882 6.55798 0.749147
2129 2 25.0385 17.7128 7.10806 1.63798 1.71758 -8.25949
1204 2 1.31958 17.807 5.10436 4.73983 -0.383905 0.461268
1207 2 3.26291 19.5208 5.24199 -2.27693 -1.85076 2.19714
1264 1 1.68575 21.3295 5.21432 -0.571719 -2.70747 -0.547205
2102 3 1.43764 19.4676 6.99562 -7.77335 3.28967 -1.65369
2165 2 3.22968 21.3399 6.74861 -2.30415 -2.0001 0.224066
2161 3 -0.207088 21.5536 6.97468 -3.75525 1.28059 3.42924
2164 3 1.68507 21.4483 8.64083 -5.98323 0.909167 -3.10704
2109 3 6.93057 17.7854 7.11643 -6.66366 3.83043 -5.67186
1211 2 7.03165 19.7606 5.30344 -5.71875 -0.3398 -0.916305
1268 1 5.28451 21.4876 5.39001 -0.910548 4.57097 0.913653
2106 1 5.11677 19.5965 6.70735 -8.40773 -1.0622 -4.09002
2169 2 6.95469 21.7129 7.19424 -3.77279 -5.76083 6.6302
1212 1 8.63735 17.7631 5.19707 -1.78841 -5.47741 -3.8546
2110 3 8.76176 19.4708 6.94684 1.09406 3.79932 -0.180151
2111 1 6.6082 19.7306 8.70421 -0.0627096 -2.49212 -0.844068
2172 1 8.762 21.3392 8.64333 -1.90297 0.237562 -3.40133
2168 2 4.86116 21.48 8.74094 -5.49907 0.608385 -4.31221
2108 2 5.0145 17.8457 8.74435 -2.11575 1.43312 -6.82381
1272 1 9.01955 21.469 5.24118 6.85569 -1.99371 5.0101
1216 3 12.3268 17.93 5.31607 -2.03958 1.3935 -1.4263
2113 3 10.4725 17.8513 6.94179 -2.41031 2.68486 2.22059
1215 2 10.4361 19.6679 5.21552 -5.68009 1.64728 8.10694
1276 2 12.3802 21.497 5.20103 -1.34514 -1.11009 2.836
2114 1 12.2244 19.7478 7.04201 4.42025 2.66644 -1.47147
2173 2 10.6331 21.5694 6.96611 0.148158 2.96998 1.06531
2117 2 14.2324 17.7876 6.96988 -5.02261 4.18391 -1.68962
2121 2 17.7456 17.852 7.0162 3.48555 1.68353 -6.04188
1220 1 16.037 17.7937 5.10702 -2.1805 1.31647 -4.42244
1219 1 14.1343 19.8109 5.39698 -3.79966 -2.08996 -3.36419
1280 1 15.8317 21.4997 5.05795 4.46045 4.39653 -2.84379
2118 1 15.9619 19.7991 6.94406 0.442555 -1.60028 -1.85074
2177 2 14.3047 21.593 6.89027 11.0891 2.11579 -1.90677
2181 2 17.7149 21.4005 7.00212 3.30274 5.31547 -1.96505
1223 2 17.7288 19.6495 5.13822 1.04565 -11.0557 -0.159045
2119 2 14.0516 19.8605 8.63378 -2.09479 -1.93446 5.74468
2120 1 15.8169 17.8805 8.59541 -1.37702 3.81872 -0.0291787
1227 3 21.2305 19.5249 5.13452 -0.014519 -9.38145 3.24049
1284 1 19.4899 21.4317 5.29577 -0.0668423 -2.03456 -0.998279
2122 1 19.3776 19.5398 7.07711 -1.03835 4.2993 2.12339