ITEM: TIMESTEP
147600
ITEM: NUMBER OF ATOMS
13500
ITEM: BOX BOUNDS pp pp pp
-2.1387951023812235e-01 5.3733879510217150e+01
-2.1387951023812235e-01 5.3733879510217150e+01
-2.1387951023812235e-01 5.3733879510217150e+01
ITEM: ATOMS id type x y z vx vy vz
7 3 3.33717 1.59957 1.80502 -4.74629 -1.99134 -3.78535
64 1 1.40182 3.37074 1.52739 -7.00172 5.60408 2.55221
902 1 1.37196 2.14098 3.49224 -0.339122 -1.43607 -9.61603
965 2 3.40669 3.44931 3.45444 1.53282 1.06434 3.1616
4 3 1.42956 -0.0674339 1.69779 1.76633 -0.820393 -1.41588
905 3 3.20281 -0.0560294 3.57909 2.7213 -3.23387 -0.719834
901 2 -0.174389 -0.0716089 3.34172 -3.55811 3.69497 2.44636
65 3 3.39471 3.4853 0.0503151 -1.13765 -2.41447 -3.29116
2 2 1.48947 1.84418 -0.162745 1.29946 -1.79362 -1.51147
5 3 3.18278 0.00228286 -0.132738 5.41924 -0.707126 4.56089
11 3 7.00448 1.7963 1.73179 -4.61314 0.401631 -6.53168
68 2 5.11669 3.6439 1.55235 -1.51453 0.211624 3.51494
906 3 5.10971 1.76497 3.35679 2.56809 -2.8367 -5.21848
969 1 7.21006 3.43628 3.30138 -1.98821 1.72651 -6.31657
909 3 6.8151 -0.119475 3.40201 6.56044 -1.16724 -2.95906
6 3 5.07097 1.73594 -0.134391 -0.731969 2.88455 1.99718
69 1 7.05288 3.22715 -0.0451486 1.40165 2.91822 -2.95371
10 2 8.67687 1.4972 -0.156124 -1.07126 -0.444482 2.88086
910 2 8.72903 1.42188 3.28268 -0.447309 3.90092 0.481752
12 1 8.72206 -0.124312 1.73576 -6.30306 -3.12382 -6.84593
72 2 8.84993 3.45144 1.69059 -2.54959 -3.4661 0.569398
15 1 10.453 1.51243 1.59523 -1.22305 4.47902 -1.50337
76 2 12.3614 3.45829 1.70789 0.957129 6.77702 -0.29009
914 3 12.2671 2.02717 3.39944 1.0031 -0.279477 -0.0765517
973 2 10.4019 3.43405 3.46116 3.00021 -3.0684 -0.193209
913 3 10.6124 0.112672 3.65521 -0.551972 4.6756 -1.89933
14 2 12.2878 1.6431 -0.115713 5.71755 2.49871 2.82685
13 2 10.4987 -0.217853 -0.165336 -1.81736 -3.24085 -1.3857
16 3 12.2662 -0.0466308 1.66329 -3.85572 -2.9277 -0.212311
73 1 10.4307 3.35206 0.206693 -1.9948 -0.340642 -3.35828
19 3 14.2245 1.55121 1.83901 -1.96712 6.79767 4.3377
80 3 15.8371 3.24235 1.54292 -7.93207 -2.30323 2.07298
918 3 16.1654 1.59877 3.41127 4.60331 0.100155 -0.925916
977 3 14.0039 3.3561 3.29467 1.53602 -3.70323 1.68387
917 3 14.0563 -0.0349017 3.5634 -4.31749 -3.36515 2.10806
17 3 14.1619 0.0914905 -0.065915 -0.395748 5.7088 -0.870811
23 3 17.798 1.54969 1.56751 4.53802 7.14349 -3.96363
981 3 17.8248 3.68328 3.58492 -0.0529801 2.0748 -2.00763
27 3 21.3198 1.40785 1.55087 -1.10718 2.12383 -5.2572
84 3 19.7504 3.4508 1.8066 1.4681 -4.3788 2.46294
922 3 19.6854 1.66758 3.27234 -5.80492 -0.615878 -1.25605
985 2 21.5543 3.4487 3.34749 2.2502 2.49487 -3.62271
22 2 19.389 1.48846 -0.184024 -3.35856 1.04706 1.44811
81 3 17.9039 3.49364 -0.1503 2.88451 -5.3051 1.83679
925 3 21.3454 -0.0161644 3.36871 -0.241019 -6.45317 -1.36458
85 2 21.3373 3.65401 -0.156158 -5.83053 -0.162081 5.10198
31 2 24.7892 1.61691 1.63995 0.430721 1.89544 -1.54945
88 2 22.9317 3.41328 1.33016 -4.36482 4.32569 -5.13917
926 3 23.0962 1.4615 3.48773 -2.67321 5.0284 -2.65967
989 2 24.9272 3.44441 3.35972 -3.80027 -0.687949 -2.14659
929 1 24.9589 -0.105955 3.57995 -3.75142 -2.15257 1.22076
930 2 26.7106 1.69468 3.07683 -0.505055 -0.28043 -2.86728
92 1 26.6109 3.59892 1.62933 -1.99985 -6.23498 -2.39894
28 3 23.1646 -0.113854 1.64908 1.05696 7.84973 0.185495
67 1 3.28189 5.37984 1.59163 -3.06781 -4.01811 1.01312
124 1 1.56306 7.19844 1.66876 4.21294 0.626948 1.24015
962 3 1.63055 5.08071 3.21115 -3.73053 4.62817 3.33933
1025 2 3.44257 7.19066 3.27016 0.168658 -2.231 1.51202
63 2 -0.10967 5.362 1.38323 -5.11384 -0.53907 4.78793
62 2 1.45809 5.36455 -0.110343 -4.24668 1.89681 6.69597
125 3 3.36035 7.10003 -0.184511 5.39425 2.24734 5.19934
71 1 7.07516 5.35169 1.72226 1.70822 4.46456 3.58383
128 2 5.31087 6.8789 1.68994 1.31724 2.37004 -5.46191
966 3 5.22003 5.16343 3.35316 1.74593 1.86768 -1.54408
1029 1 7.10824 7.07371 3.23179 -5.409 -0.543731 -2.0306
132 2 8.71371 6.91958 1.63956 1.30921 -2.10902 -2.12862
129 1 6.72649 7.08638 0.0179774 -3.76172 3.77971 -1.85287
970 2 8.727 5.20549 3.32575 -0.0955042 1.79571 -2.48944
130 1 8.83349 8.75305 -0.0179711 -1.04341 2.84788 -3.37332
75 1 10.406 5.35331 1.64208 4.23574 -2.5102 -2.46042
136 3 12.3708 6.86453 1.45852 -0.273755 -8.45903 5.06198
974 3 12.3762 5.28026 3.46348 8.49255 -3.66466 -0.274985
1033 3 10.6611 7.13631 3.59241 1.53017 -0.0874235 -3.04622
133 1 10.3482 6.9284 -0.165095 -2.48176 -2.34234 -2.50179
135 3 10.6503 8.53069 1.67991 -5.09126 3.84173 -1.95775
134 3 12.3351 8.60156 -0.112038 -3.44571 0.726082 2.36928
70 2 8.87675 5.07562 -0.143986 3.85505 5.7664 7.6039
79 1 14.2517 5.15199 1.36797 -1.24881 1.67823 4.78878
140 3 15.9065 7.10641 1.80929 2.94868 5.81031 -2.75764
978 3 15.6874 5.26895 3.39734 -0.770795 -8.23192 -4.59319
1037 2 14.1497 6.83915 3.57653 1.41908 -3.98345 -4.87044
83 1 17.7564 5.56078 1.85299 -0.422406 -0.660377 2.06691
137 3 14.5745 6.93414 -0.176928 9.03998 1.14599 -4.5571
78 2 16.0395 5.17324 -0.00380174 -1.84517 7.93178 4.38309
1041 2 17.963 6.95567 3.6406 -3.29582 5.55852 1.72438
87 1 21.5777 5.43263 1.57797 3.89108 2.06929 5.1638
144 3 19.4706 7.28999 1.65812 2.61707 0.0374226 -4.87776
982 3 19.6877 5.02558 3.47112 5.38696 0.869814 5.76049
1045 2 21.2392 7.16783 3.46059 6.2861 -1.34364 4.80577
145 1 21.2874 7.14583 -0.131743 2.07628 -5.46303 1.53736
82 2 19.413 5.51921 -0.0219773 0.387618 3.81046 1.00085
91 2 24.973 5.21903 1.4003 -0.171323 -0.272385 6.60735
148 2 23.2046 7.34913 1.61649 -4.16468 -2.7992 5.02399
986 1 23.3901 5.26791 3.47253 3.35532 0.131621 1.94506
1049 2 24.7449 7.3522 3.25703 1.80397 -1.86711 -1.79358
990 1 26.6574 5.3302 3.2296 1.94554 -1.20467 3.1415
149 1 24.7835 7.49917 0.0699919 -0.599984 1.52094 0.0928606
152 3 26.6608 7.09461 1.35046 -0.452625 -1.42855 4.62337
1022 2 1.41623 8.99023 3.30144 -3.63352 4.69887 4.12472
127 2 3.38137 8.91297 1.62111 -4.88596 -1.696 -5.65013
122 3 1.58889 9.01916 -0.19808 -1.31301 -3.5147 -0.304318
184 3 1.63265 10.7034 1.62048 0.669155 -1.87364 8.16664
187 2 3.4284 12.4719 1.59693 3.81842 6.2753 0.113087
1082 2 1.61393 12.6578 3.25163 -2.61952 2.08156 0.442061
1085 1 3.39649 10.5933 3.69327 7.85993 -0.863715 1.63829
182 1 1.50771 12.703 -0.136605 3.97341 -0.316873 3.68752
1081 1 -0.160336 10.5531 3.48142 1.34369 0.802464 -3.02835
185 3 3.17025 10.9926 -0.111603 2.11572 4.21865 0.538044
1026 1 5.06481 8.96659 3.54585 3.18483 2.5245 1.72612
131 1 6.86812 9.02971 1.81878 1.42238 0.6895 -2.1058
188 1 5.30448 10.8188 1.88151 0.0840862 2.72212 3.27689
191 3 7.10323 12.4893 1.5921 2.00742 -5.37722 2.12833
1086 2 5.16269 12.4018 3.41734 -1.45847 6.25313 1.14189
1089 2 7.13661 10.8547 3.40596 -0.219042 0.746078 -2.4191
126 2 5.15858 9.02899 0.254172 -2.61483 0.10193 5.6008
186 3 5.17272 12.2579 -0.0927009 1.01541 -0.0892964 3.12996
189 2 7.06238 10.5368 -0.0603857 -4.19622 1.29591 9.0551
192 3 8.75321 10.6833 1.79854 -1.59881 -2.16467 2.61539
1090 1 8.90304 12.5615 3.44926 -0.655117 -3.42518 4.27697
1030 2 8.83725 8.79238 3.42601 1.44974 -2.59911 -1.16509
1034 3 12.3378 9.08805 3.48141 -1.40494 0.514256 -5.55085
195 2 10.5769 12.5569 1.52002 -0.109429 1.19914 1.95322
196 2 12.5712 10.8293 1.56232 3.17049 5.49576 7.56622
1093 3 10.681 10.7226 3.3448 -1.12511 0.4449 -1.35898
1094 1 12.3988 12.6469 3.42098 -2.33195 1.32172 0.245357
193 3 10.7857 10.7106 -0.0533619 0.815184 0.755668 -6.18121
190 1 8.91041 12.1806 -0.0510931 -1.78925 5.37329 1.46551
138 2 15.9264 8.84104 -0.0418341 -4.89158 5.77091 0.0450356
139 3 14.0679 8.95365 1.81754 -0.833474 5.03821 0.866474
143 3 17.5606 9.03345 1.7029 3.73767 0.193587 2.0882
1038 3 15.9572 8.86812 3.33609 -4.79076 -5.3907 -4.44709
199 2 14.1429 12.5765 1.79045 6.79577 3.46936 -4.95046
200 2 15.8218 10.7225 1.85218 3.77194 -4.70252 -1.17779
1097 3 14.0098 10.8946 3.54765 -4.4026 6.30826 1.19966
1098 1 15.9604 12.6709 3.34082 -0.746441 1.93366 -4.88971
1101 3 17.6459 11.0746 3.48112 2.78823 2.73594 2.7374
203 2 17.5049 12.6206 1.30691 -1.78836 -3.97578 -2.63394
201 1 17.5991 10.6492 -0.0678047 4.17663 2.61605 0.288937
197 1 13.9881 10.3808 -0.0180822 6.16341 -2.39837 5.33847
198 3 15.4814 12.5695 -0.136293 -4.40021 -2.79719 5.75572
1042 2 19.3001 8.97423 3.50661 -1.15713 -3.51638 2.10025
147 3 21.0535 9.1241 1.47765 -1.00195 0.383698 -3.06067
204 1 19.2636 10.6103 1.77682 4.9643 -2.53024 0.304671
207 2 21.2368 12.5665 1.76117 -2.41135 -3.87904 2.12974
1102 1 19.5132 12.4526 3.20163 -4.97065 -3.96898 4.2796
1105 3 21.0835 10.6638 3.31275 -2.95234 -6.54522 -4.81841
202 3 19.6104 12.5679 -0.203128 9.28393 -1.48798 -6.3415
142 2 19.4569 9.00941 -0.112314 -4.05128 5.0873 -2.36813
205 1 21.1531 11.075 0.0848402 4.21469 2.61551 0.727955
151 1 24.8108 9.37399 1.55196 4.81141 4.63738 -2.217
1046 1 23.0861 8.95443 3.17595 0.211193 2.47182 0.413164
208 2 22.981 10.5641 1.74624 -1.2824 3.89866 0.435218
211 3 24.806 12.5613 1.64859 -1.89589 -3.00019 1.79752
1106 3 22.9997 12.3505 3.46381 4.66011 -8.28649 1.25544
1109 3 24.8183 10.8627 3.37865 -2.69387 -2.27117 -3.53382
206 3 23.1612 12.622 -0.0702894 3.74521 -2.13403 -0.38988
210 3 26.6239 12.4829 -0.154871 3.3576 -0.601325 -1.94998
146 1 23.0167 8.97587 -0.0242061 0.769463 4.205 2.96413
1110 3 26.6424 12.3601 3.55156 -3.23491 3.56699 -3.67014
1141 1 0.0448294 14.456 3.46411 -2.87249 3.32926 -1.53194
244 1 1.66204 14.2816 1.52203 3.37557 -4.32027 0.384041
247 1 3.43582 16.2891 1.53928 -3.64786 3.79343 1.67931
1142 2 1.66854 16.1478 3.20991 -2.36227 2.26458 3.50967
1145 1 3.54223 14.5676 3.31987 2.38913 3.51422 1.16122
245 3 3.6493 14.2512 -0.135176 -0.699117 -3.23172 -1.57169
242 2 1.38071 16.0766 -0.113397 1.39064 3.99633 9.37638
248 3 5.20578 14.0538 1.61852 1.07269 3.13294 3.52444
251 3 6.96729 16.048 1.54104 -3.88588 -3.98049 5.00726
1146 3 5.25063 16.2154 3.15091 -2.65554 3.99161 -4.30788
1149 2 7.01017 14.3017 3.15431 3.23053 3.22121 -0.448389
1209 3 7.379 17.6866 3.28908 8.23841 5.7116 0.512898
1150 3 8.73159 15.8897 3.08809 -2.10947 -1.31464 -1.78737
252 3 9.10229 14.3013 1.37406 -3.20454 -4.81929 -0.244612
255 2 10.7326 16.1475 1.55838 0.785987 5.70418 -1.38246
256 2 12.4068 14.2001 1.40848 -1.91851 -7.17338 -1.21514
1153 1 10.6356 14.4331 3.40306 3.54741 3.38546 -1.83935
1154 2 12.4686 16.0478 3.50728 -3.3859 -1.78273 -0.866662
259 1 13.9757 16.13 1.57793 3.50615 -1.82897 1.37471
260 3 15.7871 14.4588 1.49174 -6.4476 -7.03401 -0.700721
1157 2 14.0797 14.3652 3.45609 2.66669 1.96314 -3.60638
1158 2 15.7728 16.0831 3.70209 -1.98592 0.54092 8.55898
320 1 15.8092 17.6876 1.87663 0.624829 0.701033 5.87359
263 3 17.7874 16.0712 1.71616 1.34572 1.49661 0.856471
1161 3 17.9346 14.2863 3.40766 -0.0513089 -1.70746 0.478248
1221 1 17.8437 17.7566 3.38024 -5.88152 3.81768 0.839209
264 1 19.4984 14.2474 1.432 -0.699846 1.80773 -0.624644
267 1 21.4515 15.8979 1.71064 -5.59883 0.951906 3.59017
1162 2 19.839 16.0642 3.5751 5.74649 1.06219 1.55536
1165 2 21.3149 14.3109 3.08428 6.64876 2.00125 -5.91384
265 3 21.4011 14.1065 -0.106212 5.42626 5.64447 -0.0542908
268 2 23.4699 14.4024 1.63421 9.05323 -1.46701 -2.35468
271 1 25.159 16.2538 1.51337 0.237524 1.79732 -10.3282
1166 1 23.1854 16.1168 3.1911 -2.28311 0.535191 -3.32099
1169 2 25.0511 14.4324 3.51828 9.50671 -6.22502 -1.05118
269 1 24.759 14.4977 -0.18379 2.08176 1.5543 -3.64903
1170 1 26.6579 16.0627 3.56706 2.82956 8.86428 -2.03369
266 2 23.225 16.2725 -0.0615174 0.0240833 -0.902193 0.550957
272 3 26.66 14.1312 1.66543 -4.11834 5.57488 -1.82555
332 2 26.7189 17.7529 1.58379 2.56076 -3.0408 4.77541
304 1 1.68013 17.932 1.51509 -0.238356 -1.64144 -2.27106
1205 3 3.36472 18.2425 3.31182 5.60239 -0.218442 8.65554
307 2 3.44603 19.6845 1.46748 4.04068 2.08197 1.05758
364 3 1.46366 21.6489 1.57808 3.61219 -1.18156 2.1618
1202 3 1.66598 19.9003 3.2488 -2.02872 2.52417 -1.48235
1265 2 3.8233 21.4323 3.25 -4.4797 -0.0168702 -4.07899
302 1 1.55817 19.7025 -0.0931859 1.24947 8.19488 -1.94722
308 3 5.47193 18.1157 1.59467 -1.96278 0.00233226 2.24844
311 1 7.04277 19.9352 1.49705 -3.85909 -4.82669 -2.3798
368 1 5.17252 21.5439 1.59695 -2.64225 0.471369 2.51617
1206 1 5.20156 19.7383 3.39275 -2.14383 3.32413 -0.95855
1269 1 6.92445 21.4151 3.49257 -0.0970693 -2.30195 -0.773549
1210 2 8.68275 19.8825 3.09414 0.765585 1.66185 0.111156
306 3 5.27056 19.7556 -0.172875 -4.50651 -2.14374 3.0117
309 3 7.05668 18.0382 -0.154714 1.40523 0.117227 7.33719
310 1 8.80493 19.9631 -0.0862486 4.02366 -1.35509 2.68404
312 3 8.88944 17.9332 1.46527 -2.0574 -0.110768 1.83562
372 2 8.91374 21.5992 1.56261 -2.14806 -1.86677 10.8683
1213 3 10.4717 17.8413 3.32446 3.59854 -1.34603 -6.10387
316 2 12.3986 18.0139 1.63716 -8.7839 0.456589 -1.27082
315 3 10.6301 19.8658 1.56699 -1.53749 0.887836 -1.54468
376 2 12.4802 21.4944 1.54281 -2.52007 5.82228 7.67639
1214 2 12.1821 19.6952 3.55602 -2.94357 -1.09058 3.21532
1273 1 10.6738 21.5669 3.37195 1.23061 -3.47561 -3.74982
373 1 10.5344 21.8516 -0.026353 3.42388 5.83334 1.86905
1217 2 14.0185 17.8193 3.58225 -5.8615 2.39541 4.32854
319 3 14.2437 19.7151 1.78833 -0.734731 5.37197 0.187018
380 3 16.021 21.2807 1.48944 -0.753946 -5.22621 5.13549
1218 2 15.7929 19.1831 3.49134 -3.56272 2.79019 8.04701
1277 1 14.2135 21.1069 3.79915 -5.53362 3.40864 -1.41578
1281 3 17.4897 21.4742 3.32331 -1.65357 3.53063 0.162415
323 1 17.7577 19.4878 1.75636 5.44083 -11.3204 -0.467165
318 2 16.0257 19.194 -0.105016 -3.43727 -8.68631 0.17149
317 3 13.9723 17.9029 -0.205867 -0.943356 -0.990284 -0.443415
321 2 17.7054 17.8345 -0.158805 -5.79919 -0.387119 0.339329
1225 2 21.548 18.1239 3.45854 -3.84891 -2.77237 -1.54842
324 3 19.5781 17.824 1.56828 1.93979 -3.85714 -2.06196
327 3 21.1649 19.4847 1.4699 -1.98325 0.710331 -8.22926
384 1 19.5541 21.2682 1.39242 1.58939 -1.56194 2.23097
1222 2 19.2372 19.6098 3.56159 3.67993 3.69122 -0.262208
1285 1 21.101 21.5518 3.03466 2.0454 0.18668 3.18656
325 1 21.6226 17.8953 -0.197352 -5.23995 2.94 -1.82684
381 2 17.9903 21.4361 -0.150073 2.12235 4.14606 6.82728
1229 3 24.835 18.0777 3.41894 1.72775 -5.43683 0.453708
328 2 23.2495 18.1053 1.50465 -0.171521 -5.31782 -2.29265
331 1 24.7785 19.7057 1.58256 -1.27457 -6.69596 4.01542
388 2 22.9694 21.108 1.61006 -4.69946 3.98985 -1.77393
1226 1 23.0911 19.9272 3.61198 -4.9666 -0.60911 2.72051
1289 3 24.969 21.5658 3.15336 -1.31124 3.4607 -6.41121
329 3 25.0603 18.0372 -0.133019 -3.65735 0.28295 -0.918217
392 2 26.5761 21.5223 1.55927 -1.01825 3.47958 0.804971
367 1 3.5595 23.0792 1.34569 1.67786 -2.53452 -0.258479
424 2 1.59301 24.9767 1.76455 -4.57923 -2.38256 3.79577
1262 1 2.05071 23.3002 3.37992 7.6553 5.87725 -8.44097
1325 1 3.53438 24.8792 3.29763 -3.38134 5.4497 1.7955
362 2 1.35316 23.3449 0.105664 2.64708 2.59657 2.35148
1321 3 -0.18462 25.3701 3.41391 -2.56274 3.3523 -6.3579
425 1 3.13868 25.155 0.0230669 -0.156866 -0.824341 0.35206
427 1 3.25012 26.6247 1.73495 -1.75593 -1.2905 4.95251
421 1 -0.0765849 25.0825 -0.202479 1.44118 0.842816 -1.97293
371 1 6.97205 23.1643 1.58376 -1.04556 8.34376 0.840562
428 2 5.41072 24.8234 1.5835 -3.77903 -1.66429 -5.00955
1266 2 5.42051 23.0698 3.49391 4.41735 7.71227 1.04413
1329 1 6.92504 25.2114 3.38015 3.31632 4.65157 1.71225
1270 1 8.71283 23.4074 3.50889 6.60321 -0.982114 1.37988
370 1 8.739 23.4193 -0.106136 5.00475 3.36751 0.4333
429 1 7.04961 25.1087 -0.179903 -1.74228 -0.463402 -1.52868
432 2 8.64171 25.2043 1.64564 -4.78606 2.48622 2.38524
366 2 5.21286 23.2261 -0.117849 2.1326 2.80278 -0.0349368
375 2 10.6308 23.3862 1.81034 0.379845 -0.967005 -1.09839
436 2 12.6319 25.0901 1.85257 1.92862 -1.04886 2.03839
1274 1 12.7027 23.0946 3.43675 -2.89344 5.20997 -2.83057
1333 1 10.8347 25.1347 3.26205 2.82266 12.4147 2.84066
433 3 10.6895 25.0504 -0.10148 5.97473 2.87349 -4.06247
379 1 14.4891 23.24 1.69019 1.89006 5.09871 -3.52779
440 1 15.8185 25.0368 1.71419 2.50658 1.38485 6.80541
1278 2 15.7703 23.2878 3.43522 2.0791 -1.7325 -2.60454
1337 2 14.1814 25.1522 3.42674 1.47318 0.112929 0.058446
383 3 17.7007 23.1391 1.39369 3.67099 5.06921 2.11438
437 3 14.3612 24.9364 -0.214179 -2.39533 3.13762 -2.92134
443 2 17.8707 26.713 1.49352 -1.82676 -3.11127 -4.42659
1341 1 18.0043 24.9114 3.1035 0.614615 0.921943 3.39787
387 1 21.5933 23.3064 1.48279 -2.97524 2.42945 -6.59268
444 2 19.5764 24.8047 1.20307 -6.44831 -3.61851 -3.08649
1282 2 19.8019 23.3312 3.28582 7.26973 1.69516 -0.0809561
1345 3 21.4297 25.1405 3.41451 3.07187 5.64025 6.46035
1342 1 19.4993 26.7602 3.7624 -6.99337 3.40143 -5.47042
447 1 21.1689 26.6325 1.53259 5.19948 4.59709 -0.241405
391 1 25.1439 23.1704 1.14471 -4.32931 5.2441 -2.56302
448 2 23.2427 24.9555 1.64273 0.217466 1.91346 7.19059
1286 3 23.2725 23.1697 3.39528 -1.61745 0.890014 0.0706043
1349 1 24.9805 25.2198 3.41197 -0.188441 -1.13155 -4.93875
386 1 23.3967 23.0952 -0.211161 -1.01947 -0.829006 -3.9505
1290 1 26.7419 23.2433 3.57289 -1.20246 1.92393 6.9137
452 2 26.4382 25.2704 1.754 -0.370619 -3.98916 -7.57034
449 2 24.835 25.1337 -0.120881 0.429411 0.959213 4.21138
904 2 1.50469 -0.0197518 5.35854 3.60852 -5.97165 -0.0271082
907 3 3.25602 1.90076 5.26414 -1.17168 2.76293 -1.67116
964 2 1.50686 3.65086 5.29038 -0.277016 -0.461219 -1.81
1802 2 1.63705 1.72641 7.35405 8.84638 0.630715 -0.0136672
1865 3 3.29444 3.70661 6.86268 -4.14004 -3.00281 -2.81849
1805 1 3.25962 0.0501267 6.9805 2.00482 -2.65947 -4.48447
903 1 -0.104746 1.88414 5.39064 -2.72229 -5.30032 -2.56739
1861 3 -0.0872599 3.45495 7.34931 3.70711 -3.82006 -7.63754
1809 3 7.04111 0.219587 7.08343 0.166375 2.04854 -0.525722
908 3 5.2131 -0.16149 5.20856 3.83098 2.38003 1.76713
911 3 7.13618 1.66757 5.22051 -0.533737 9.28263 -2.06531
968 3 5.22157 3.64965 5.39607 -1.22872 1.50058 -2.56912
1806 3 5.18882 1.83519 6.86768 0.870938 -3.97482 -3.5021
1869 3 7.07667 3.81436 7.08817 -3.21165 1.68527 0.117541
972 1 8.64489 3.54053 5.25062 2.21121 -0.538773 -0.295168
1808 2 5.37009 0.327001 8.74184 -4.83221 -3.7914 4.31524
1810 1 8.68839 2.03198 7.36518 -5.1076 -2.04232 1.87809
912 3 8.87313 -0.00428601 5.47786 -1.79217 2.08817 2.09296
915 1 10.4351 1.94264 5.27653 3.76877 -8.01538 -0.180077
976 3 12.4556 3.53835 5.39273 -1.82098 -0.42463 -0.164289
1814 1 12.3145 2.032 7.08529 -3.85879 -6.88159 -2.12127
1873 2 10.6407 3.49228 6.80339 2.6525 -1.60751 0.385798
1813 3 10.512 0.0173528 7.15944 -3.69599 -0.568658 -1.08165
916 2 12.4926 -0.0394295 5.51605 0.179532 -0.192887 -1.28598
1876 2 12.188 3.68073 8.62563 -2.63874 -12.0828 -2.55397
1815 2 10.7553 1.84502 8.7174 -2.03758 -5.73504 -2.22709
919 1 13.9708 1.61176 5.27454 3.27301 0.09622 6.04111
980 3 16.0526 3.33204 5.07017 -2.80997 0.597016 0.80125
1818 3 16.0826 1.7368 7.16527 -6.7155 -0.559401 4.16667
1877 1 14.2087 3.78123 7.52382 0.0555585 -2.06259 1.32546
1817 2 14.1923 0.124882 7.15666 -3.42935 2.61688 -1.12178
920 3 16.0481 -0.0726637 5.56444 -0.255042 0.685427 -4.09272
1820 1 16.209 -0.0242483 8.65969 -3.26209 -5.15079 -6.22974
1881 2 17.9308 3.58745 6.95757 2.57607 1.18856 1.41383
923 3 18.0724 1.87643 5.14349 1.59871 -1.66525 5.27447
1821 2 17.8058 0.0588766 7.15003 -1.73499 -0.266673 3.76877
1825 2 21.5572 -0.0473969 7.04785 2.23511 -5.93231 -0.536337
927 3 21.4641 1.81698 5.22065 4.04578 -6.06643 -0.878029
984 3 19.9276 3.54909 5.30481 -6.72411 -2.22028 3.17418
1822 1 19.5406 1.72805 7.26185 7.25429 -3.07465 2.00297
1885 2 21.3794 3.71873 7.28335 -4.37508 -5.97334 0.680557
924 3 19.6839 -0.049851 5.27835 -2.14737 -0.21267 0.628758
931 2 24.7961 1.73682 5.37075 1.2963 -1.24551 1.94284
988 2 23.0467 3.76709 5.06484 0.0685773 -1.64212 -3.00382
1826 1 22.8742 1.79471 6.90214 -2.79177 -1.85612 -0.847237
1889 2 25.1256 3.59335 7.06039 0.39119 0.645557 -4.79935
1829 1 24.8736 0.20466 7.14981 3.12173 0.251186 2.85752
1830 1 26.6636 1.86588 7.06981 3.42874 -0.86171 4.73878
932 3 26.6227 0.18144 5.21912 -3.33903 -0.580422 -1.71779
1831 2 24.8015 1.86975 8.76247 -3.57085 -1.97472 2.12756
992 1 26.6602 3.51812 5.05263 -5.66971 -4.71862 4.24913
928 2 23.1405 -0.184195 5.29996 -1.24271 1.86831 -0.122399
967 3 3.32888 5.40051 4.8139 1.40636 2.40074 -1.55148
1024 3 1.39712 7.00595 5.06268 -0.983907 0.718543 -0.139153
1862 3 1.42804 5.34407 7.15696 4.65399 7.16668 -0.760609
1925 3 3.53318 6.99115 6.98159 3.14683 -2.6146 -6.26367
1027 3 3.03381 8.66643 5.29736 0.503143 -0.0295889 -1.27939
1921 3 -0.131916 7.12121 7.14846 0.462848 1.21476 -0.568752
963 1 -0.212719 5.24411 5.05962 -1.82635 -4.38589 -0.523003
971 2 7.08334 5.39844 5.22828 -3.21389 1.18464 3.20768
1028 2 5.31556 6.9998 5.15031 -2.95562 1.54498 -7.90509
1866 3 5.3594 5.46891 6.91599 4.03389 0.875711 -0.0567292
1929 1 6.95217 7.17147 7.02339 4.88977 -1.42396 -5.57426
1926 1 5.15208 8.69367 6.91991 1.63186 2.60558 -0.195592
1931 2 6.95099 8.70894 8.74182 -2.64889 7.70398 -3.81317
1930 2 8.73059 8.6617 7.01562 -5.64276 -0.749895 1.78311
1032 3 9.01585 7.22757 5.16448 2.03561 5.00075 1.74246
1870 1 8.8645 5.417 6.86377 -5.25581 -0.0975812 4.5239
975 3 10.6821 5.25226 5.19548 -2.49992 -1.9361 -0.962863
1036 3 12.6089 7.28636 5.1445 2.59614 0.860725 -1.41573
1874 3 12.5505 5.7042 6.97341 0.18545 6.12616 7.96632
1933 3 10.5095 7.26562 7.20134 -1.81355 -0.536551 -3.97764
1936 3 12.3109 7.2286 8.76174 -4.79502 3.55715 1.518
979 2 14.3073 5.20965 5.2889 -0.960785 1.4359 -3.76652
1040 1 16.1246 7.15374 4.91848 0.131099 -3.79232 -2.78254
1878 3 15.9227 5.53896 7.02728 2.09586 -3.61439 -7.86906
1937 3 14.414 7.23973 6.81537 1.28424 -3.22635 0.162045
983 1 17.7475 5.35982 5.13675 1.21822 1.65131 0.00824927
1883 1 17.9866 5.19335 8.63262 -0.433608 -5.27913 1.7492
1941 2 17.8635 7.2271 6.83453 -4.18075 1.7652 -5.17135
987 1 21.3761 5.42553 5.21339 -2.30505 -6.23773 5.19953
1044 1 19.511 7.04863 5.23466 -1.22584 -2.68207 4.58571
1882 2 19.4431 5.25699 7.04004 -0.170068 8.39145 1.78261
1945 3 21.1831 6.97633 7.08945 3.32915 -5.20184 9.29737
991 1 25.0073 5.5317 5.21928 -4.84685 4.26374 -1.54089
1048 3 23.271 7.09281 5.25911 0.726151 -4.49957 -0.538585
1886 1 23.1684 5.26884 7.16456 1.13987 2.91284 0.720292
1949 2 24.9417 7.20351 7.12947 0.718074 -2.93867 1.87853
1948 3 23.1028 7.20757 8.55436 -2.53694 0.685358 3.0473
1052 2 26.6114 7.12016 5.12297 -2.21202 -0.214344 -3.34604
1927 2 3.37582 9.01405 8.70848 -4.58009 7.3294 -1.83934
1922 3 1.50716 9.0753 6.85395 2.4407 1.78283 7.86643
1084 3 1.76109 10.7676 5.15072 -2.34568 -2.10456 2.23016
1087 1 3.65066 12.5054 5.1675 -6.74239 3.6774 -2.60955
1982 3 1.62681 12.3603 6.82535 -6.09668 3.49085 6.14832
1985 2 3.62735 10.7368 6.7897 0.511538 -1.39625 -2.46341
1984 1 1.92867 10.5818 8.72113 0.395128 0.400156 -0.565547
1983 3 -0.124761 12.3508 8.77938 1.62558 4.41 4.47432
1987 3 3.32333 12.394 8.61381 -3.11134 3.34416 3.78607
1083 3 -0.0405835 12.4612 5.30795 1.42684 2.0396 4.33407
1031 3 7.08224 8.92684 5.02107 0.735027 4.12171 -4.99693
1088 2 5.33528 10.5367 5.20767 -0.192819 -2.37719 3.2063
1091 1 7.02417 12.5801 5.23193 1.90105 6.59772 -2.86646
1986 2 5.45077 12.6426 6.85145 1.91501 -3.05469 -0.334213
1989 1 6.88273 10.4723 6.858 2.47553 6.83492 5.89765
1990 2 8.60214 12.5742 6.9913 5.07063 1.94815 -0.535618
1988 3 4.95584 10.5842 8.5831 0.878231 2.50141 4.05792
1092 1 8.67613 10.8492 5.18139 -0.26808 9.62806 -3.67742
1992 2 8.69333 10.7113 8.75228 -7.67017 -3.40615 -2.18105
1991 1 6.80642 12.2471 8.76314 -0.310379 -3.3061 -4.68354
1934 3 12.5887 9.0607 6.85956 -0.0219004 5.39215 -4.59616
1035 3 10.4365 9.18628 5.29489 -9.28914 4.43389 -0.683142
1095 2 10.7306 12.3395 5.22941 -1.57834 4.17692 -2.61855
1096 2 12.2494 10.7234 5.17571 -3.0592 -6.95681 3.92994
1993 1 10.3678 10.8023 7.13081 -5.06509 4.82201 0.897796
1994 1 12.3111 12.3076 7.1517 -4.16355 -1.18107 -1.96232
1995 3 10.6268 12.6158 8.77555 3.09882 0.295396 5.72801
1043 1 17.7265 9.10692 5.23442 3.12378 6.70318 -0.0114447
1039 3 14.3756 9.05875 5.18552 4.31939 4.48954 -1.03585
1938 2 16.1031 8.87241 7.21155 0.214893 0.60884 1.11461
1099 3 14.0925 12.4221 5.20553 3.77479 0.758315 -7.17452
1100 3 16.012 10.7741 5.20862 1.48352 4.27201 2.26779
1997 3 14.3471 10.9182 7.12749 -3.60145 -3.81191 -0.0107329
1998 3 16.1245 12.4139 7.11201 -2.07542 2.87356 2.02486
1939 3 14.135 8.94377 8.62055 -6.08484 -3.31246 -5.70305
2001 3 17.814 10.6936 7.10908 3.69331 2.34735 5.61033
1103 2 18.0522 12.5742 5.33 -6.39059 -4.38869 1.75629
1047 3 21.1883 8.91537 5.07342 3.63684 -0.822047 -2.91623
1942 1 19.3416 8.87055 7.17757 -3.63964 -0.838975 -2.23625
1104 3 19.475 10.8719 5.25366 -0.754652 1.94612 0.543141
1107 3 21.1308 12.5215 4.96671 1.32151 4.51976 0.119247
2002 3 19.4806 12.6782 7.18659 -2.93786 4.18527 -3.48
2005 3 21.2716 10.5763 6.9097 -10.811 -6.13876 -1.38605
2007 1 21.1352 12.5728 8.72291 -1.40083 0.23266 1.39386
2010 3 26.4426 12.3752 6.9725 0.130801 -6.26641 -3.35658
1112 3 26.7086 10.531 5.3322 3.02247 -5.35712 -1.16996
1051 3 24.9798 8.87848 5.24377 -0.590872 3.03851 -0.0449798
1946 3 23.0564 8.97751 6.88414 2.57137 1.60548 -2.25395
1108 3 22.9887 10.8632 5.23709 -3.06014 3.25664 5.52206
1111 3 24.9255 12.4881 5.29355 -6.68201 1.22103 2.4392
2006 3 23.0378 12.5279 6.8507 -2.55861 6.13991 0.311674
2009 3 24.9096 10.6616 7.0035 -5.28628 -5.39151 2.38299
1950 1 26.6867 8.83667 7.22507 -3.0227 -0.448295 4.7193
2008 3 22.9415 10.6612 8.61766 1.09066 -1.09409 0.0934716
2011 3 24.8263 12.3036 8.69015 0.952974 2.55653 -1.3783
1951 3 24.8066 8.93662 8.77676 -5.2373 0.574435 0.634418
1144 3 1.70408 14.3967 5.25042 -4.42628 -5.19531 -1.12446
1147 2 3.31206 16.1847 5.12127 -0.755455 0.686717 6.99245
2042 1 1.74608 16.4226 6.93183 0.477517 3.14883 -2.77469
2045 3 3.30716 14.163 6.85877 0.929502 0.47498 -5.13425
2044 3 1.52952 14.1361 8.71717 -3.92903 -7.62092 4.01764
2047 1 3.22886 15.9911 8.6734 3.8487 2.7675 2.50538
1143 3 -0.0221576 16.3012 5.21937 3.75254 -7.93328 -3.32523
2041 3 -0.154281 14.3223 6.96984 2.74997 2.06202 -2.55831
2043 2 0.0857261 16.2692 8.75177 -2.51737 7.87082 -6.61977
1148 1 5.33356 14.3586 4.95312 -0.99142 0.383977 -3.13028
1151 1 6.95345 16.1604 5.03244 0.0513912 -4.15283 3.87484
2046 2 5.0413 15.7171 6.70003 3.73839 2.41791 -1.39176
2049 2 6.89867 14.4535 7.08215 2.58457 1.89882 -6.47724
2050 1 8.60568 15.963 6.85705 -2.08883 0.427473 2.56584
2048 1 5.06596 14.29 8.53016 1.27465 -2.05478 -3.76504
1152 2 8.87163 14.2856 5.1436 0.698644 -6.02806 -1.74382
2052 1 8.82411 14.2986 8.62977 -3.81079 6.66819 1.66458
1155 1 10.6881 16.0147 5.25574 6.95066 4.11383 -3.90875
1156 2 12.557 14.0856 5.29891 1.07551 2.25875 -3.28764
2053 2 10.6579 14.0736 6.97144 6.80099 -4.9531 0.903522
2054 1 12.3179 15.8823 7.12743 5.54415 2.12226 6.82432
2055 2 10.6053 15.909 8.52369 2.74388 -3.75381 4.8454
2113 3 10.3234 17.7021 6.92668 5.24753 4.29157 0.978631
1216 2 12.1407 17.7514 5.39384 -0.732141 -3.7482 5.71056
1159 1 14.0786 16.3133 5.42489 6.60658 0.59011 3.15614
1160 1 16.2053 14.3446 5.38108 -3.1807 -8.57275 1.25871
2057 2 14.3984 14.2977 7.01863 1.08985 1.31333 1.33554
2058 2 16.082 16.0829 7.06048 -0.0490044 5.83074 -1.82968
2061 3 17.7465 14.3844 7.18513 3.54027 3.01358 -2.36965
1163 1 17.7432 16.0287 5.44857 -6.73921 -3.20223 -5.19005
1164 3 19.5831 14.3282 5.21985 1.72902 -3.21062 0.303974
1167 1 21.4552 16.1228 5.23882 3.04879 -1.20589 -0.188973
2062 1 19.5053 16.1775 7.29123 -2.18071 -0.592149 -3.37794
2065 2 21.445 14.4468 6.936 4.38321 -3.23705 7.57607
2125 3 21.1463 17.7216 7.10692 -3.20346 5.48428 0.840672
1224 3 19.6538 17.6152 5.0895 2.48773 2.44176 -1.4103
2070 1 26.6231 15.965 6.93586 -6.36959 -2.73282 8.66748
1168 3 23.0375 14.1859 5.06001 5.39695 -6.87836 5.09737
1171 2 24.84 16.2481 5.1801 2.58336 -2.36393 -1.19158
2066 3 23.1908 16.1794 7.00561 -0.758854 -4.22812 -0.999769
2069 2 24.8894 14.1277 6.93523 1.00831 3.37768 -0.177385
2072 3 26.6865 14.1077 8.7001 -1.28326 2.55115 0.710235
2071 2 24.8245 15.7967 8.65847 5.03396 -6.39629 -3.55869
2105 1 3.43564 17.9161 6.95578 3.17122 2.19266 1.56159
2101 3 -0.196953 18.1518 6.86791 -3.40448 3.65387 -5.4077
1204 3 1.56182 18.1509 4.9769 4.0603 -3.95928 -1.05938
1207 2 3.41689 19.7319 5.18972 3.53129 -3.0633 -4.67055
1264 3 1.74476 21.4673 4.95628 5.92394 -2.16678 0.857126
2102 1 1.87058 19.6447 6.7872 1.17354 -3.80617 -5.59894
2165 2 3.3939 21.5234 6.97362 4.74345 -5.20067 0.492342
2107 2 3.42275 19.5522 8.5208 -3.07253 -3.26585 3.42992
2164 3 1.60235 21.4821 8.6809 -1.72398 -1.29321 1.34844
2104 2 1.56077 17.9652 8.71375 -0.176941 -2.50609 1.00499
2109 2 6.74972 17.8031 6.89276 -2.20089 4.4852 -1.38074
1208 3 5.25698 17.7984 5.20037 -7.75746 -2.08747 -2.1056
1211 3 7.24729 19.598 5.0651 5.53425 -4.07584 -3.1833
1268 1 5.40701 21.2582 5.26748 -1.79244 2.34013 6.1415
2106 3 5.18078 19.6765 7.05572 -0.672732 -0.332493 -1.25955
2169 2 7.15765 21.5951 6.72964 3.51515 2.0066 3.33276
2168 1 5.18004 21.5849 8.5347 4.77464 -5.24174 -0.525611
2172 3 8.61579 21.4989 8.74607 7.21609 -2.31101 1.44382
2111 3 6.87329 19.6371 8.64902 3.34586 0.409843 -3.72637
2110 3 8.65988 19.7638 7.00952 -3.36539 4.97192 -7.36418
1212 2 8.98421 17.7928 5.05691 -1.10803 -4.31673 -1.96307
1272 1 9.07338 21.5886 5.01478 2.97006 -9.3702 -1.49536
1215 1 10.508 19.7885 5.26477 2.29816 1.43065 0.0452081
1276 2 12.3023 21.3447 5.42474 0.921553 1.06248 7.69571
2114 1 12.149 19.4981 7.05362 -5.98083 5.55053 -6.37904
2173 3 10.6007 21.4535 7.02928 -0.0163833 -2.61002 0.972307
1220 1 16.0279 17.7744 5.52627 0.559777 2.29262 5.72974
2117 2 14.0876 17.9494 7.2795 -9.0877 -1.99704 -2.35076
1219 3 14.1479 19.5941 5.39415 -0.844894 -3.28101 -2.61093
1280 2 16.0143 21.4485 5.19318 -0.979263 4.41797 -3.83543
2118 1 15.9154 19.8 7.23205 4.90719 1.69553 3.22957
2177 1 14.1486 21.5044 7.03852 -2.21797 -2.52852 0.231073
2181 2 17.6411 21.5259 6.89803 -2.38246 -5.23823 2.4592
2121 2 17.7247 17.9328 6.88686 1.85317 4.64342 -0.115146
1223 1 17.5779 19.6043 5.35128 3.39279 -0.601247 7.32551
1227 1 21.1083 19.6019 5.01063 2.53067 1.00173 1.19888
1284 2 19.4412 21.5172 4.98845 -3.2054 -2.15084 0.2724
2122 1 19.5577 19.7054 7.06557 -6.27854 -2.52961 5.82793
2185 2 21.3311 21.3469 7.16271 5.30115 4.56289 -6.94875
2130 2 26.587 19.4838 7.16122 0.0780081 2.89812 5.08678
1292 1 26.706 21.4537 5.41978 1.62117 0.659236 2.98982
2129 1 24.9702 18.0182 7.14081 -1.94228 -3.0828 3.1922
1228 2 23.1471 18.0319 5.27123 -9.04383 3.29139 3.67264