ITEM: TIMESTEP
127200
ITEM: NUMBER OF ATOMS
13500
ITEM: BOX BOUNDS pp pp pp
-2.1258165011951036e-01 5.3732581650101409e+01
-2.1258165011951036e-01 5.3732581650101409e+01
-2.1258165011951036e-01 5.3732581650101409e+01
ITEM: ATOMS id type x y z vx vy vz
7 3 3.32082 1.6145 1.65459 -1.40537 2.56517 1.65781
64 3 1.71004 3.38583 1.40555 -4.4027 -4.74472 1.88357
902 1 1.51712 1.57554 3.27658 0.676382 -4.50045 -2.72247
965 2 3.52801 3.47902 3.33019 -5.62042 -0.759799 2.56208
905 2 3.36514 -0.115712 3.23059 0.794032 -5.91686 4.08374
3 1 -0.0995763 1.79369 1.54054 7.49385 -9.03591 2.52672
5 1 3.39175 -0.140239 -0.0240242 1.9596 -3.43256 7.04875
1 1 -0.182923 0.011589 -0.11941 1.0325 -0.275161 3.12169
961 2 -0.0637119 3.35457 3.51779 7.91099 -3.85923 -3.89883
11 1 6.7089 1.71165 1.39369 0.669573 -2.77471 1.12808
68 1 5.14111 3.77038 1.46128 -4.46723 3.95139 -5.47198
906 3 5.17699 1.79971 3.27887 -0.367233 1.64058 6.52835
969 2 6.78392 3.51363 3.61292 -3.14999 -1.33 -6.9259
8 1 5.16368 -0.146863 1.50117 3.22421 0.313263 2.57252
909 3 6.92905 0.312912 3.38247 1.97392 -7.02935 -4.94947
910 3 8.61676 2.03049 3.29886 -4.33218 6.30862 -2.68444
12 3 8.75226 0.0348729 1.45676 -2.7049 -1.18812 -2.9936
72 1 8.82207 3.7178 1.67994 -0.470249 -1.59628 4.27294
15 1 10.4927 2.00549 1.75846 -2.26063 2.06545 -4.83425
76 2 12.3781 3.6464 1.76662 1.15636 -0.61487 2.21565
914 3 12.2226 1.6888 3.46519 -10.4766 2.53791 5.08424
973 2 10.4809 3.59778 3.29143 -0.228748 -2.48583 8.86706
913 3 10.4626 -0.124366 3.55729 -4.29988 1.29085 2.47249
14 1 11.9095 1.51672 -0.166026 -2.96246 4.10547 -2.37009
13 2 10.3165 -0.185161 -0.174124 -1.92695 -7.83159 -8.43829
16 3 11.9908 0.00148425 1.6392 -2.40117 -4.45926 0.0853936
73 1 10.4743 3.69971 -0.115056 2.80098 -0.0316612 5.92123
19 3 14.033 1.68162 1.63827 -7.06748 0.0918247 -2.501
80 3 15.6616 3.52792 1.7289 1.90438 0.210386 -7.31529
918 3 15.6474 1.55385 3.36314 6.19348 1.6335 -1.80281
977 3 14.1993 3.69063 3.5995 2.24119 1.43588 2.55073
921 3 17.5781 -0.0337834 3.37538 2.0138 0.61323 -1.15616
18 2 15.6629 1.82842 -0.140887 -0.106598 0.921468 -2.54016
23 1 17.6925 1.96478 1.1132 1.97163 1.46278 0.208968
77 1 13.8121 3.70635 -0.0166778 -1.51454 -0.118025 -4.52366
20 1 16.0095 -0.0797645 1.54322 6.2196 -10.0243 -0.409597
981 3 17.4571 3.42689 3.28087 1.25555 0.645045 -1.35157
17 1 13.9078 -0.168242 0.0812522 -3.82498 -3.72658 -2.66811
81 1 17.4987 3.77134 -0.0292462 -0.274495 -2.26469 1.81273
917 3 14.0773 -0.0588942 3.3504 -2.33234 2.94431 1.1755
27 3 21.1668 1.62931 1.69914 8.35893 -1.48981 -0.346202
84 2 19.3544 3.53283 1.61834 -3.77755 1.12913 -6.34147
922 3 19.3564 1.6659 3.37883 -2.79296 -7.0267 -7.52058
985 3 21.1597 3.49887 3.29275 2.45299 -6.91424 -6.19966
925 2 21.144 -0.170845 3.55633 2.65384 -0.49148 7.83727
24 2 19.1347 -0.0473724 1.68991 5.99511 1.57517 -9.28955
85 1 21.3426 3.48869 0.0570522 9.31493 3.92741 2.24717
31 1 24.7469 1.73507 1.82327 -2.45122 -2.93842 -0.140966
88 2 23.1258 3.46759 1.69933 -0.676323 -0.652076 0.156134
926 3 23.1665 1.44959 3.43527 -4.51384 0.194924 -0.567216
989 2 24.8165 3.57606 3.58161 1.71128 -2.48329 -0.447387
28 1 22.838 -0.104315 1.71965 1.74219 2.51447 -1.21363
930 2 26.6542 1.82027 3.4403 -1.8506 0.317739 -6.09625
26 2 23.2441 1.76807 -0.146835 -2.60906 -4.69699 3.07379
92 1 26.4471 3.51916 1.45641 -1.88721 -0.194705 4.035
32 3 26.451 0.161011 1.49512 1.49976 -1.36533 -2.27513
67 1 3.20898 5.2892 1.42441 -0.820074 0.254359 -3.26395
124 3 1.64312 7.06476 1.66066 4.26013 1.55946 0.287688
962 1 1.63032 5.29823 3.55754 -5.42164 -0.878759 3.43749
1025 3 3.42249 7.02857 3.37494 0.0205784 1.62916 3.47383
63 1 -0.112484 5.28211 1.70913 9.34208 0.742256 -4.93509
71 2 6.91951 5.45738 1.74641 -2.78633 0.928504 1.79349
128 2 5.12012 7.0719 1.56461 -2.05198 -0.280014 1.64341
966 3 5.01824 5.34776 3.46646 0.936759 0.391746 -2.27168
1029 1 6.72564 7.34204 3.41007 4.46944 1.30706 3.3647
970 1 8.67355 5.50194 3.51197 -1.47655 -0.931642 1.06477
132 2 8.7046 7.34173 1.40892 1.48546 2.02318 -4.62963
75 1 10.4846 5.40306 1.83091 1.89194 -3.50952 -1.84871
136 2 12.2298 7.13976 1.73882 -1.62222 -5.13905 -1.19529
974 1 12.267 5.28942 3.3177 5.32883 3.52676 -1.55716
1033 2 10.49 7.25269 3.28322 3.0095 5.63786 7.5251
133 3 10.6584 7.23631 -0.0675178 4.13433 -0.143702 -0.352982
74 2 12.2844 5.40478 0.0446994 1.16029 0.117964 6.40204
79 3 14.0898 5.36835 1.73226 -4.47027 4.45104 -7.23074
140 3 16.0816 7.09322 1.43312 5.10303 1.17556 -2.81735
978 3 15.8324 5.45907 3.43039 6.67109 0.821203 -0.772576
1037 3 14.2146 7.09474 3.55613 -6.12255 5.20408 -1.97985
137 1 13.9764 7.01731 -0.100318 -1.55577 -2.16961 1.9981
78 2 15.8852 5.27821 -0.17419 -3.98814 2.54747 5.62116
1041 2 17.8656 6.85013 3.45658 0.532148 -2.17511 1.98482
83 1 17.9427 5.44917 1.66601 -0.987687 2.48714 2.38309
87 2 21.3261 5.33891 1.76091 0.53218 0.742628 -4.24579
144 2 19.3511 7.14022 1.70987 3.52336 0.418437 8.31883
982 3 19.3331 5.14842 3.46383 -0.838668 0.908507 -7.98457
1045 3 21.1901 7.18883 3.32557 -4.94919 -1.08486 0.837958
145 1 21.2359 7.20082 0.00430384 -6.85323 1.98588 -2.42788
91 1 24.7181 5.46276 1.64725 2.23091 -3.73672 -2.73045
148 2 23.1017 7.11744 1.61587 -0.133336 3.57712 -2.9932
986 1 23.2143 5.48564 3.46009 -3.56389 5.58663 -7.26623
1049 2 24.869 6.99238 3.46681 -5.76883 -2.54901 6.95499
149 3 24.8291 7.32009 -0.0167112 -1.52411 -9.19477 -1.13607
990 1 26.5158 5.19223 3.32471 -5.51542 -1.34089 -1.13228
90 2 26.5805 5.37625 -0.084288 -2.98261 -4.73529 -0.797058
1046 3 23.0646 8.73787 3.58892 1.0691 0.795535 3.3299
123 2 -0.0532471 8.89788 1.64413 -3.55569 4.10902 4.18974
1022 2 1.69158 9.09296 3.29906 1.6559 -1.46095 -1.74853
127 3 3.47631 8.79418 1.59969 -0.371947 0.23155 -1.8747
184 3 1.60122 10.7396 1.38769 7.28082 0.398073 2.80192
187 2 3.16156 12.5258 1.59812 0.708971 3.94564 0.36068
1082 2 1.83737 12.4457 3.54537 8.03302 -2.95644 -0.991138
1085 1 3.24851 10.7319 3.33316 1.07486 2.05698 1.20894
183 2 -0.0274203 12.4119 1.56724 4.49102 -0.525704 -3.46536
131 1 6.7586 9.00509 1.50416 -5.11495 -2.58367 2.93397
1026 2 5.03343 9.01427 3.38336 -4.89906 3.85556 -5.48139
188 3 4.86478 10.7445 1.42619 2.02784 4.74518 2.62914
191 3 7.03299 12.4363 1.68654 -2.61068 -0.2884 4.17472
1086 3 5.10787 12.3352 3.43276 2.29139 -1.56442 3.41664
1089 2 6.80675 10.7232 3.12207 -1.58793 -2.49035 -0.668298
192 2 8.72476 10.7895 1.50722 1.50861 -0.0764283 0.501751
1030 3 8.45041 8.97162 3.17935 -6.64549 -4.6058 -1.19963
1090 1 8.93695 12.6214 3.41581 -0.0104392 0.0846591 3.13224
134 1 12.4696 9.02647 -0.113711 0.695573 1.56954 -3.86392
1034 3 12.4453 9.14824 3.224 0.293648 1.25107 -4.52609
135 1 10.5928 9.02671 1.71211 -5.50241 -3.61527 0.674432
195 2 10.5986 12.4256 1.40114 -1.90855 3.00988 0.00325634
196 1 12.4615 10.8423 1.61332 -2.26838 0.512683 4.0045
1093 2 10.4212 10.7413 3.21269 -1.54406 2.87687 1.37679
1094 1 12.2808 12.7387 3.41287 -2.57665 -4.93946 -9.61364
190 1 9.00806 12.7458 -0.114933 -5.3449 -6.67449 1.3186
193 2 10.5436 10.6495 -0.0539886 -4.13458 1.50319 4.76212
138 1 16.0123 9.01763 -0.203237 -3.95266 -3.33546 -3.7239
143 3 17.6133 9.02333 1.64975 2.7749 -4.24844 -2.97296
1038 1 15.8302 8.89705 3.29959 -1.83972 -2.08546 2.45487
139 2 14.2474 8.93893 1.52503 -2.16421 0.0252698 -4.20399
199 1 14.2586 12.7234 1.57597 5.62306 4.54651 0.243211
200 3 15.9527 10.8087 1.47208 -1.57835 2.64633 -3.43208
1097 3 14.4813 10.7776 3.25382 5.22446 0.464387 2.79458
1098 2 16.0187 12.5459 3.34671 0.299734 -2.43554 -0.51263
1101 1 17.4825 10.5076 3.39562 -1.0481 -2.07883 1.96099
203 3 17.8852 12.4829 1.50635 0.0707175 4.74248 0.567077
1042 2 19.4582 8.951 3.27162 -5.85906 -0.316739 -0.48017
147 1 21.3677 9.20743 1.76416 1.28503 -2.19458 -2.43952
204 2 19.3813 10.8141 1.38267 4.40925 7.53025 2.31783
207 3 21.4221 12.4418 1.54865 -2.2158 -1.01702 6.59374
1102 3 19.6137 12.6014 3.23952 6.92587 -2.74205 7.50965
1105 1 21.3094 10.7629 3.62918 3.95691 -1.26857 1.20488
142 1 19.5206 8.84991 0.0469961 1.40693 -3.74731 1.71506
1050 3 26.6659 8.78591 3.3786 0.265079 1.09287 1.3331
151 1 24.88 9.09565 1.86552 -4.26543 -5.19143 2.86514
208 2 23.2275 10.6655 1.6717 1.56481 2.14659 6.64462
211 2 24.6511 12.3393 1.81549 -1.2795 2.42544 -1.72619
1106 1 23.1151 12.2209 3.52225 1.14993 3.69089 1.425
1109 2 25.141 10.7411 3.96705 -3.15821 -1.09262 -2.02558
1110 1 26.6645 12.2383 3.51346 -0.974293 -2.94487 5.70791
146 2 23.1867 9.18706 0.0127287 -4.64187 -5.65968 -4.85676
212 1 26.439 10.8313 1.79724 0.335329 -0.55328 -1.61978
150 2 26.7126 8.98257 -0.0166713 -1.9045 2.70724 -4.42789
244 1 1.83496 14.1403 1.89803 -1.91661 3.62475 3.77746
247 2 3.46458 16.2594 1.80946 2.75888 3.07456 -2.43942
1142 2 1.7171 16.0822 3.43436 3.0177 1.54177 -0.482325
1145 3 3.37317 14.257 3.57019 -3.70414 -1.35501 0.120777
245 1 3.20381 14.551 -0.168782 -1.55393 -1.56873 -3.90099
1141 1 -0.106265 14.3089 3.21568 -2.02747 6.55234 -2.12965
242 2 1.47652 15.9518 0.0748855 0.41251 3.9138 7.17909
248 2 5.17278 14.1173 1.61808 4.14391 -2.71139 7.14779
251 3 6.85175 15.9381 1.89433 -4.18853 1.32801 -1.62395
1146 1 5.02505 16.0308 3.41536 -0.300842 7.68863 -4.02315
1149 1 6.93047 14.2271 3.64865 -1.28725 -0.395972 4.73086
1150 3 8.65587 16.2484 3.62636 2.72461 3.37543 2.42878
249 3 7.02788 14.2907 0.0540721 2.74728 2.09508 -0.454357
246 1 5.38171 15.8884 0.166553 -5.66409 -0.675825 3.20398
250 1 8.59709 16.2639 -0.0176139 3.62435 4.41145 6.44542
252 2 9.16928 14.4161 1.68666 2.1749 1.08745 -4.05993
255 2 10.116 16.6847 1.64081 -7.33385 0.932292 5.68876
256 2 12.2605 14.5087 1.52314 2.81932 -0.746828 -2.82519
1153 1 10.5002 14.3543 3.47995 1.52263 0.706585 -7.83466
1154 2 12.1098 16.1714 3.46269 -0.12532 2.09236 0.570591
253 2 10.6528 14.3502 -0.129337 -1.02505 0.271813 -0.504687
316 2 12.2983 17.754 1.58564 1.35747 -4.90861 7.22999
259 1 14.1197 15.8987 1.5729 -7.55797 -1.09274 0.633421
260 1 15.8276 14.3321 1.6771 6.56636 -0.257912 2.43798
1157 2 14.0301 14.1433 3.45645 1.07323 5.83741 -2.87142
1158 2 15.8042 15.9828 3.55065 1.25485 2.53759 -1.26092
1161 1 17.6848 14.2805 3.37727 -2.27294 -1.62259 7.97854
1221 3 17.5144 17.6088 3.48437 0.573575 2.6473 0.638997
263 2 17.6332 16.0832 1.41212 4.56162 6.9592 2.92406
258 2 16.0246 16.1666 -0.143947 2.68539 -1.42211 -4.04273
261 1 17.626 14.391 -0.187695 -1.80082 -1.7303 1.24918
264 1 19.5979 14.2587 1.66017 -4.0858 -0.803702 -1.53831
267 3 21.1669 16.0826 1.57065 -1.86288 -4.95262 2.48339
1162 1 19.5282 16.0553 3.37409 -3.48718 4.77755 3.91737
1165 2 21.5166 14.3605 3.47139 1.61042 2.91244 -1.0128
265 3 21.3971 14.0458 -0.219987 1.17454 -2.52808 -4.0283
272 2 26.6304 14.2525 1.66 2.88776 3.23238 -0.158526
268 3 23.0382 14.2937 1.79264 1.11071 -5.20073 2.03767
271 1 25.217 15.943 1.60535 -0.00316137 1.6342 1.71657
1166 2 22.9707 16.3394 3.3307 -6.62897 -6.51565 3.05701
1169 2 24.9846 14.2969 3.45136 4.07812 1.62922 0.256977
1170 1 26.7408 16.1082 3.63323 4.64739 -0.287543 -5.84114
269 1 24.882 14.105 -0.0994741 -0.212141 -0.7 1.86908
266 2 22.8623 15.8854 -0.110831 -4.99398 -0.391829 1.16374
1229 3 24.869 17.7508 3.43901 3.08883 -3.65605 0.533387
329 2 24.7447 17.7352 -0.204525 -0.377398 -5.83017 -7.93813
301 3 0.054256 17.8683 -0.0222115 -3.24124 4.12506 -4.407
1261 1 0.000522171 21.8919 3.06703 4.65711 1.96967 -2.55117
1205 1 3.53102 17.9811 3.3953 3.82706 2.04339 2.17084
304 1 1.73721 17.9526 1.51718 -0.13972 -1.043 0.0585577
1201 2 -0.215843 18.0774 3.43895 -3.70633 -1.52053 1.84632
307 3 3.69496 19.6142 1.6575 4.86434 -3.39092 -5.45603
364 3 1.67863 21.7331 1.54993 -0.265943 4.8749 -1.76994
1202 3 1.70587 19.7541 3.22594 -0.390927 7.4118 2.4463
1265 3 3.3759 21.5403 3.40346 -2.34506 -3.61067 -1.63569
308 2 5.41088 17.8265 1.48192 0.161241 -3.54087 8.5766
1209 1 6.7456 17.7709 3.66287 -0.650857 -1.76687 3.428
311 1 6.82244 19.7177 1.76717 -2.65972 -3.05251 1.14364
368 1 5.28001 21.4769 1.2891 -5.91698 7.13845 -3.02418
1206 2 5.30972 19.5118 3.42718 -0.0940642 2.61395 -5.96804
1269 1 6.82656 21.5683 3.04092 4.49708 -1.81756 4.66063
1210 2 8.71413 19.7646 3.56796 5.24732 -4.39758 3.59943
372 1 8.68932 21.6312 1.54146 3.80484 -1.40515 -0.975202
312 3 8.29191 17.9526 1.69123 2.12017 2.80938 0.612516
310 2 8.67008 19.8014 -0.0383807 -6.10966 0.151402 2.82772
369 1 7.10287 21.3875 -0.200193 2.36991 -2.55777 -0.943265
306 3 5.21406 19.7417 -0.156742 4.7464 -2.62203 1.83313
309 2 7.06406 17.8672 -0.156879 3.01039 3.56733 10.019
1213 1 10.453 17.9061 3.37921 -10.5314 -3.63584 1.31617
315 3 10.3069 19.5668 1.7714 -2.20859 -4.60091 4.38095
376 2 12.2331 21.6807 1.68126 -0.225123 0.527919 -7.38472
1214 1 12.2909 20.0293 3.40449 -5.14013 7.13801 -2.667
1273 3 10.2823 21.6034 3.3751 -1.13039 -2.67978 3.12101
373 2 10.5907 21.5764 -0.116485 4.08711 1.23819 -2.35246
313 1 10.4434 18.0051 -0.11705 -0.624302 0.243111 -2.05804
320 1 15.8606 17.7829 1.75872 7.18109 2.2297 -3.74885
1217 2 13.9717 17.9756 3.25937 0.996342 -1.89895 -1.36451
319 1 14.0243 19.6312 1.57148 1.32062 -0.0590313 1.76997
380 1 15.6388 21.3386 1.65025 0.673712 -0.827365 -0.643647
1218 2 15.7838 19.694 3.39892 0.433289 3.35535 -1.25298
1277 1 14.1244 21.5484 3.56238 -2.01043 -7.76572 -2.10594
1281 1 17.4718 21.3235 3.63861 -3.96159 -0.394126 -2.27653
323 1 17.6954 19.8127 1.49004 0.807926 -1.65891 -1.54007
324 3 19.3504 18.0332 1.81297 7.99106 -5.4777 -0.489502
1225 1 21.1908 17.7992 3.29266 -4.51974 -2.54526 -1.93357
327 3 21.347 19.6807 1.63753 -5.58939 -1.25033 7.02836
384 1 19.2004 21.5139 1.65309 0.0343462 0.740733 -6.0087
1222 2 19.4609 19.5797 3.38079 6.25928 1.9044 3.00143
1285 3 21.1629 21.4174 3.48699 -6.63378 -4.49849 -2.6462
385 2 21.5596 21.3573 -0.202932 4.6994 -3.28078 0.065166
328 3 22.9269 17.9495 1.53907 -2.5575 2.01209 7.21032
331 1 24.6998 19.5399 1.50855 -3.392 5.47478 3.00829
388 2 23.1737 21.2966 1.73147 3.07582 1.8582 0.000818668
1226 2 23.1551 19.2445 3.54189 2.11266 0.620893 4.95446
1289 3 24.7801 21.3349 3.47308 -6.26576 -3.33712 -3.88699
389 1 24.8576 21.3691 -0.0267419 8.86607 0.671096 -0.560149
1230 3 26.584 19.7106 3.42058 -2.9381 0.247868 1.64919
330 3 26.4195 19.6614 0.0141003 -3.74403 -4.83931 2.98518
392 2 26.6385 21.4236 1.57353 -7.45786 -5.78143 1.6715
367 3 3.64447 23.3504 1.62913 -0.174292 -1.64038 -4.97632
424 1 1.44014 25.2864 1.47134 0.215298 1.29446 -6.72134
1262 3 1.89261 23.4644 3.39289 -0.526995 -2.07388 0.53798
1325 3 3.24732 25.4254 3.24389 -3.32436 0.113332 6.99923
362 2 1.38306 23.2312 -0.155646 -5.43901 -2.47031 1.63245
371 2 6.91492 23.2436 1.36442 -0.989171 4.22474 2.52306
428 2 4.99319 25.4141 1.12109 2.29643 4.62943 1.68304
1266 2 5.22582 23.5064 3.40086 0.0353174 5.29385 0.832369
1329 1 6.63898 25.1768 3.48772 3.95995 0.313045 -1.23095
1270 1 8.30208 23.5107 3.2341 0.388239 4.71768 4.07137
432 2 8.60377 25.0415 1.38462 7.61149 -0.286607 1.81464
375 3 10.5438 23.1874 1.5683 1.18598 -0.0936578 4.0144
436 2 12.2419 24.8662 1.39551 3.12321 -2.69764 7.99418
1274 1 12.2075 23.4969 3.36478 -2.50416 1.73936 -4.54134
1333 3 10.2978 25.2234 3.3191 -0.6435 1.1895 4.48253
433 1 10.4584 24.927 -0.0919996 0.519823 -0.763806 2.01217
1338 3 15.7351 26.7362 3.25501 2.48602 1.91853 -1.13676
379 3 14.0113 23.1636 1.28821 -1.0589 1.63282 -1.79415
440 2 15.8201 25.0824 1.6717 1.19425 -3.45634 2.65142
1278 2 15.9218 23.0416 3.4368 4.83724 2.97918 2.23384
1337 3 14.0284 25.1281 3.28049 3.05357 -0.903656 -8.0475
383 2 17.3353 23.0592 1.50458 3.53187 0.313534 3.88054
441 1 17.6747 24.8529 -0.107569 -4.24469 -0.696118 -4.82552
1341 3 17.545 24.8642 3.23364 -7.04552 -3.2836 2.87872
387 1 21.3651 23.1933 1.70498 -2.14414 -0.370155 4.41846
444 3 19.4777 25.0403 1.49237 0.651533 -0.214692 0.957139
1282 2 19.5168 23.1756 3.30392 0.798588 0.477737 -2.25507
1345 1 21.3359 25.0287 3.26047 -9.03911 3.71902 -2.92989
1342 3 19.2016 26.5781 3.41882 -6.60537 3.02884 3.67762
382 3 19.6882 23.1936 -0.170355 1.13313 2.42757 0.457789
445 2 21.3998 25.2187 -0.188912 -3.54794 1.88432 0.775643
1350 1 26.5372 26.7535 3.54277 2.67923 -0.113926 5.46719
391 1 24.9419 23.4034 1.50508 2.70314 -1.40149 4.96436
448 1 23.0093 24.9504 1.70378 0.55607 4.05641 2.34088
1286 2 23.0772 23.0952 3.37105 2.76315 0.820768 -3.13861
1349 2 24.964 24.8128 3.30092 -0.231834 3.10942 -2.29171
452 2 26.678 24.9151 1.7263 1.19778 -4.23351 -5.30413
1346 2 23.1833 26.6559 3.18914 0.699292 0.741191 -2.82331
390 3 26.7156 23.2926 -0.185267 2.99314 -9.44792 -1.81067
386 1 23.041 23.2721 -0.166875 1.54639 1.12253 4.28324
1805 1 3.34341 -0.150086 6.86333 7.40294 0.204698 0.447375
907 1 3.3901 1.53633 5.12047 -1.91073 2.20228 2.56744
964 3 1.52493 3.25067 5.0893 2.07887 -8.23845 0.250841
1802 2 1.63352 1.4161 6.90671 -2.4294 3.84253 3.13766
1865 3 3.1122 3.52577 6.85647 4.25817 -0.516427 -8.23379
1807 1 3.58216 1.39036 8.50481 1.43631 -0.212286 4.36217
903 1 -0.192021 1.54916 5.31952 -1.20918 -1.57354 -3.83047
1864 3 1.70755 3.24849 8.71911 1.32368 -4.97951 -0.353999
1809 3 7.09671 0.161449 7.08207 4.045 5.38172 4.58788
911 2 7.02114 2.04624 5.30427 7.36281 -8.95783 -1.38551
968 1 4.99946 3.43654 5.1605 6.5142 -7.69635 1.04861
1806 2 5.10438 1.87541 6.89414 0.828089 3.46219 8.27599
1869 3 7.08118 3.60546 7.20066 -2.31492 3.17122 -5.09536
908 3 5.1803 0.0700694 5.32176 4.95361 2.51351 1.32407
912 3 8.52535 0.1065 5.09855 1.51877 -0.850117 -1.01686
1868 3 5.00345 3.46871 8.54977 3.43698 -0.454721 -1.43199
1810 2 8.7829 1.7207 7.09774 0.912204 -0.0687474 0.425636
1813 1 10.6455 -0.176447 6.95361 -1.41494 -3.46687 -0.70686
972 3 9.02421 3.64209 5.16649 -0.38022 -4.85307 -1.89073
915 3 10.6495 1.56835 5.12861 6.14968 4.98544 -5.7933
976 3 12.2764 3.48058 5.05252 -2.00629 -1.97821 0.0474298
1814 3 12.343 1.74925 7.00176 -1.25647 -2.23492 2.18782
1873 3 10.4952 3.28414 7.10136 -3.77612 -4.5157 3.51396
916 3 12.2552 -0.104887 5.22733 1.86491 1.12268 -0.488747
1815 3 10.5984 1.58308 8.66612 -0.571057 4.24967 11.6754
919 3 14.3146 1.73621 5.27612 3.71178 -2.7545 2.02771
980 3 16.2151 3.44715 5.27151 -0.581419 -3.7237 2.53808
1818 1 15.7495 1.55051 7.14402 0.662697 1.72587 1.94603
1877 1 14.1873 3.53441 7.12974 5.06369 0.788645 -4.03954
1880 2 15.8488 3.35368 8.74957 2.6092 -0.639757 4.9319
1823 1 17.5489 1.74578 8.58615 5.57836 -4.18886 -0.272409
923 3 17.5077 1.68869 4.98732 2.49388 -2.58819 4.58726
1821 2 17.6838 0.0980948 7.04628 -0.485302 5.14441 -0.376028
920 3 15.8363 -0.155054 5.41878 -0.907336 0.0196682 0.216702
1881 2 17.8127 3.42146 7.05243 4.64834 0.0428701 6.74117
927 1 21.1379 1.66449 5.03376 -0.214877 7.34135 -3.18769
984 2 19.2822 3.46406 5.31052 -1.44521 4.14999 -1.03559
1822 3 19.3955 1.74135 7.01965 0.509081 -3.03182 4.17323
1885 2 21.3126 3.65592 6.93894 -2.47842 1.31242 8.84455
1825 3 21.3527 0.0537591 7.24821 -3.10441 -2.44912 1.61039
1827 2 21.1405 2.12558 8.61104 0.755353 -0.0995701 4.79503
1824 1 19.4686 -0.0804084 8.72653 1.83918 -7.5842 2.45392
931 3 24.7505 1.62371 5.06802 1.3478 1.37248 3.18446
988 2 22.8553 3.79427 4.91968 -2.98436 1.34564 1.12982
1826 1 23.0878 1.92409 6.7663 -1.90689 6.69 5.5737
1889 2 24.7451 3.83683 6.85579 -1.25829 4.686 -3.5793
928 2 22.812 -0.0841656 5.36783 -9.35767 1.16488 1.41065
1830 1 26.4487 2.08684 6.90169 1.45531 0.600796 4.38129
1829 3 24.782 0.0768473 7.15363 9.90399 2.35126 -3.6726
1892 1 26.6354 3.5592 8.76739 0.172675 2.3129 -0.29517
1888 3 23.3762 3.58014 8.72644 -4.44161 -5.29747 -5.20565
967 1 3.2308 5.40276 5.31167 2.7963 1.73142 0.743795
1024 3 1.73855 7.33652 5.28017 2.23713 -3.24332 -0.42466
1862 2 1.45131 5.12955 6.93027 1.87688 -10.1272 0.661605
1925 3 3.48513 7.18973 7.04187 -0.656886 1.76476 -6.30591
971 2 7.06166 5.43921 5.22876 -1.97778 1.0221 0.883846
1028 2 5.1465 7.068 4.98258 -2.31585 11.9747 -1.16783
1866 3 5.31199 5.47317 6.98867 3.87595 2.88223 2.81533
1929 3 6.94581 7.29239 7.07233 2.6597 2.71903 -4.24489
1032 1 8.51501 7.26216 5.15299 0.838868 2.88769 -4.58273
1928 2 5.08005 7.02662 8.74464 -2.77768 3.20536 -1.53025
1870 3 8.89397 5.61906 7.07891 4.34683 -1.79693 -4.84795
975 3 10.46 5.40591 5.29442 1.58764 1.2068 -0.148974
1036 3 12.107 7.28834 5.03765 -1.37475 3.81651 -2.96672
1874 3 12.2567 5.19032 6.93806 1.50672 -0.915564 -1.24074
1933 1 10.5916 7.23539 7.08008 -0.74702 -0.471463 -2.1918
1936 2 12.3081 7.23446 8.63704 -3.56252 3.01771 0.730237
979 2 14.158 5.33046 5.28098 -5.00503 -3.20734 3.86197
1040 3 15.978 7.25288 5.01636 -0.276236 2.35525 2.24242
1878 1 15.7232 5.2306 6.97797 1.99124 -1.26489 0.539639
1937 3 14.0186 7.08842 7.02426 1.07397 4.7554 2.45107
1879 2 13.9702 5.22318 8.63651 1.49314 0.831914 3.14704
1940 3 15.8325 7.1517 8.73569 -2.60574 -4.4673 5.8467
983 1 17.4646 5.36473 5.14388 1.40604 -0.829897 1.01489
1941 2 17.7677 7.03153 6.99196 4.47577 2.19659 -5.50701
987 2 21.3695 5.37171 5.23686 -4.39317 0.495826 3.48521
1044 1 19.2609 7.08875 5.17496 -4.10325 7.46073 1.50522
1882 3 19.4651 5.17628 7.00252 0.586712 -2.29931 -4.79469
1945 1 20.9253 7.09751 7.12259 3.20733 2.35929 -5.19269
991 1 24.8992 5.24556 5.37696 -2.4455 -1.23626 -2.43475
1048 3 22.9284 7.02843 5.55641 -3.10643 5.76166 -2.37295
1886 1 23.023 5.40788 7.19652 6.82419 -0.416585 -1.94419
1949 2 24.92 7.04877 7.31928 1.28342 1.55034 0.874369
1052 2 26.6129 7.07412 5.28756 0.550683 -0.494995 2.21169
1051 1 25.0938 8.74659 5.2447 -2.07718 -0.117826 0.477627
1922 3 1.72323 9.06411 7.03554 0.743058 1.09661 -1.28265
1027 1 3.54863 8.94596 5.30202 4.60468 0.871588 6.52754
1084 2 1.62374 10.5874 5.20957 6.10129 6.33748 -5.76994
1087 2 3.5056 12.5753 5.54784 -1.41141 5.92377 1.84445
1982 1 1.63934 12.4199 7.16513 4.92544 5.4893 -2.91041
1985 3 3.57144 10.7971 7.00862 10.7076 0.395951 2.12485
1981 2 -0.0684167 10.5919 7.0728 -7.95667 2.14081 1.35547
1987 2 3.17348 12.8479 8.72631 -6.6091 1.78123 7.03705
1983 2 0.0125328 12.3512 8.71568 -3.87159 0.0940204 0.802353
1083 3 -0.0280238 12.2109 5.14318 5.49508 -1.6133 -3.47878
1023 1 -0.158269 9.07321 5.41153 1.75087 0.184839 -0.438675
1031 3 6.73858 9.14384 5.21234 5.15289 -3.25317 -0.769347
1926 1 5.2334 8.91626 7.31748 -2.12211 -1.77156 2.508
1088 2 5.08076 10.8627 5.13928 1.09695 -1.61694 -4.0395
1091 1 6.96607 12.2174 5.11703 -3.3391 0.671026 0.238819
1986 2 5.34323 12.6663 7.1389 -2.89153 0.11214 -1.43528
1989 1 6.88103 10.7753 7.15185 -2.28138 -1.13908 1.87765
1092 3 8.72967 10.7008 5.02281 0.167654 -5.1912 1.17622
1930 2 8.63253 9.02936 7.06744 -2.59573 -7.09288 0.804906
1990 2 8.69674 12.1754 7.11078 -5.88102 -0.635452 2.27635
1035 3 10.5603 9.00879 5.26847 -4.45031 -10.0172 -2.80893
1934 3 12.3999 8.9788 6.90506 0.153922 -1.15851 3.70585
1095 2 10.3695 12.3222 5.14553 6.84095 -11.6336 7.419
1096 2 12.3133 10.931 5.15292 -1.20857 -2.00338 3.81658
1993 1 10.4206 10.6873 7.28491 -2.98051 3.7178 2.53533
1994 1 12.3039 12.658 7.1151 -2.20517 2.58808 2.65743
1995 1 10.4246 12.4872 8.64634 2.30202 0.473808 5.23199
1039 1 14.342 9.26904 5.12033 -2.59707 1.8989 -0.759886
1938 2 16.0128 8.99762 6.72323 1.19995 1.59816 4.59359
1099 3 14.2185 12.3433 5.1525 -1.14868 -0.835524 0.0468496
1100 2 16.1928 10.9293 5.26998 2.04075 0.292783 5.04254
1997 3 14.0069 10.8902 7.23038 1.40369 4.16178 10.1878
1998 2 15.8971 12.6821 7.11816 -0.557802 3.44054 4.68832
1939 3 14.3045 8.98674 8.76485 1.59055 3.94341 3.84408
2001 1 17.6349 10.7342 7.00963 -1.00679 -4.32986 2.19195
1043 1 17.7099 8.85664 5.00842 3.73218 2.35726 -5.80649
1103 2 17.7614 12.5801 5.28537 7.79384 1.63222 0.939083
2000 1 15.8148 10.8283 8.76453 -0.564716 -2.22731 -3.07856
1047 3 21.2039 8.89391 5.2036 -0.0183359 -0.691693 -5.81769
1942 2 19.6656 8.79847 7.18466 -1.87591 -0.348827 -1.13379
1104 1 19.4296 10.6745 5.50505 -0.99578 7.16554 -1.09387
1107 2 21.2262 12.5107 5.1257 4.47394 -6.32 -9.21629
2002 1 19.4922 12.3277 7.2996 -3.35557 0.497382 -4.44274
2005 2 21.3027 10.7591 7.11347 -0.755165 -0.0525955 -0.832551
2004 2 19.3621 10.4444 8.7822 3.93281 0.222482 2.43929
1946 3 22.9777 8.95643 6.91216 5.06631 -5.57006 -1.60793
1108 3 23.0696 10.7929 5.3571 4.94835 0.687626 -3.62935
1111 1 24.9288 12.7994 5.23916 -7.6503 -1.07861 -0.0528229
2006 1 22.8805 12.5654 7.21708 -2.23046 -0.417058 -1.69255
2009 2 24.712 10.5701 6.88916 -5.61609 -0.770589 1.62836
2010 3 26.4502 12.6194 7.15827 -3.36478 1.84509 0.557779
2012 1 26.6273 10.6088 8.69282 -4.45314 -6.31285 0.794869
2011 3 24.9481 12.5944 8.73768 0.740715 6.91316 -2.83338
1144 1 1.49662 14.1037 5.25797 6.68488 5.46602 4.11923
1147 2 3.37452 16.1062 5.20793 6.82165 3.67803 2.68853
2042 2 1.50972 15.97 6.81531 -5.32226 4.51629 -0.933335
2045 1 3.46872 14.5196 6.93066 -5.45825 -7.22017 -1.51748
1143 1 -0.0968007 16.1138 4.83668 0.274436 -0.661417 -4.09717
2047 3 3.22041 16.1078 8.68919 -3.88072 2.41936 4.12792
2044 1 1.38276 14.4462 8.71126 4.13161 -3.46827 -3.68811
2041 2 -0.181713 14.3236 6.93292 1.18981 -2.10192 4.47545
1148 3 5.29588 14.0332 5.1643 3.06669 -4.22407 -8.27541
1151 3 6.87661 16.1361 5.17972 6.48488 1.14119 0.626428
2046 1 5.09628 16.175 7.17659 -3.18502 4.58876 -2.06124
2049 2 7.15727 14.1611 6.90136 -4.90891 2.04549 0.855748
2050 1 8.69601 15.9837 6.82058 -1.28382 -2.50412 -1.83056
1152 1 8.67022 14.0697 5.09645 -0.37564 -5.8401 1.8349
2051 3 7.01198 16.2535 8.70258 0.297783 0.491691 0.73103
1155 2 10.4844 16.099 5.03776 3.61438 0.85662 -0.965367
1156 1 12.1654 14.3981 5.29136 2.36324 0.853631 -0.0101234
2053 2 10.2564 14.3372 6.89204 -3.23444 -2.8862 4.32493
2054 2 12.4092 16.2942 7.05105 -0.986439 1.50865 -2.44504
2056 1 11.9233 14.5422 8.56339 0.309842 5.94501 2.97701
2055 3 10.3843 16.2858 8.62126 -0.00191669 3.42041 -2.26369
2113 3 10.6601 17.7272 6.87818 2.13533 1.43959 3.20009
1159 1 13.952 16.1455 5.30818 -0.736147 4.36775 -2.19193
1160 1 15.8946 14.2316 5.19711 3.04305 5.94064 -2.21915
2057 2 14.0372 14.3831 6.93892 -4.1486 1.791 3.01777
2058 2 15.7351 16.2618 6.93696 -3.20701 -1.86509 12.4283
2061 1 17.6793 14.3805 7.02367 -1.78617 2.71712 0.587548
1163 2 17.6907 16.0638 5.20966 -6.35185 1.91431 4.63041
1164 2 19.3864 14.3392 5.32916 -0.88636 -4.59206 3.39435
1167 1 21.1263 16.1557 5.21583 3.89348 -2.40213 -2.52519
2062 1 19.6111 16.0996 7.15432 1.97652 -0.918097 -1.38326
2065 2 20.9717 14.1848 6.97857 -3.9144 -4.31862 -11.6203
2070 1 26.4186 16.0297 6.90756 -2.33751 0.392795 1.40727
1168 1 23.0274 14.5654 5.28608 3.7287 3.51639 2.59622
1171 2 24.7086 16.2189 5.41194 2.64408 -3.33542 -1.96776
2066 2 22.8671 16.0487 7.54922 4.49248 -7.23938 5.66446
2069 3 24.6222 14.3161 6.89315 -2.92557 2.94345 2.60867
1172 3 26.6373 14.3244 5.34007 2.41368 -5.32324 -0.64228
2072 3 26.7366 14.3962 8.7092 1.88974 4.53301 0.864268
1203 2 0.0314305 19.8703 4.91007 3.21247 4.6209 -0.267235
1204 1 1.60767 17.9329 5.3159 -4.1279 0.685515 -1.95169
2105 2 3.39098 17.985 7.13612 4.49477 0.240049 1.26273
1207 2 3.33287 19.7452 5.09504 -4.6252 2.77743 -7.07031
1264 2 1.46449 21.5458 5.23857 -6.2216 0.123773 2.75778
2102 1 1.71198 19.7602 6.85303 8.66255 0.326147 -4.73998
2165 3 3.13769 21.5836 6.83943 1.90544 0.00570984 2.82679
2164 3 1.37918 21.6273 8.74083 3.75639 1.09739 2.37656
2109 1 7.06406 17.9981 7.04581 4.09508 -8.67602 -1.6716
1208 1 4.97655 17.8715 5.35186 0.226374 -5.15067 -3.04236
1211 3 6.79138 19.5861 5.33933 -0.801556 -2.42058 2.868
1268 1 5.18911 21.5686 5.0609 0.336907 -0.852795 -2.62078
2106 1 4.86194 19.7875 6.92518 2.25037 1.4139 0.217754
2169 2 6.72672 21.4151 7.08394 -5.18944 -1.61695 1.00221
2110 1 8.66534 19.9877 6.85419 0.332505 2.5903 -3.01002
1272 1 8.33832 21.7716 4.93807 3.44253 -4.96982 2.49334
2112 2 8.61976 18.0843 8.76122 1.4335 2.48174 -6.76404
2172 3 8.82327 21.4455 8.73273 -0.745807 -4.75626 1.2663
1212 2 8.83944 18.0965 5.26031 -5.23247 4.61 -5.48217
1216 3 12.2538 17.8695 5.13864 6.06899 0.00979636 7.75721
1215 3 10.6535 19.6388 4.93779 3.66243 0.538824 -4.33503
1276 2 12.278 21.4672 5.21065 -3.33913 3.04674 -0.360991
2114 1 12.2074 19.7535 7.20319 -4.71064 1.69692 -3.06537
2173 3 10.5428 21.3445 6.81149 -5.37248 -3.07725 0.638842
2121 2 17.7667 17.8415 6.88886 2.83993 3.71697 1.17777
1220 1 15.7802 17.9422 5.2235 3.67781 -6.18124 0.277957
2117 2 14.1652 17.971 6.97071 -0.475019 -1.71609 2.71784
1219 1 14.1446 19.5649 5.21026 -3.7175 -3.15232 -7.77098
1280 2 15.8198 21.4095 5.28579 -0.213138 -6.78819 3.41358
2118 1 15.9626 19.5831 7.27542 -4.64204 2.48198 1.75863
2177 3 14.0503 21.4877 6.8676 4.72878 7.65837 -2.22913
2180 1 15.7884 21.5079 8.69086 2.34289 -5.42379 4.64102
2181 2 17.6463 21.6296 6.86397 5.73872 -4.02276 -2.11152
1223 1 17.5827 19.5969 5.2098 -1.86939 -4.69724 5.75729
2119 2 13.9302 19.8704 8.60158 0.643889 -0.401493 4.71973
1224 2 19.5233 17.7782 5.21475 -0.156574 0.479863 4.06729
2125 2 21.4415 17.8879 7.24676 -3.54787 2.92621 -0.545955
1227 3 21.3583 19.7059 5.21017 1.4584 -2.40426 1.39016
1284 2 19.6494 21.4253 5.30772 1.9597 2.0965 -0.421363
2122 1 19.4606 19.6423 6.82466 -3.11051 0.177377 -1.01719
2185 2 21.3962 21.5077 7.12848 4.01387 4.07011 2.02775
2184 2 19.4308 21.5083 8.74094 -2.08538 -1.11623 -1.16682
2127 1 21.2254 19.8152 8.60644 -0.29466 0.526741 -3.242
2124 1 19.5245 18.0416 8.64991 3.63078 -2.08555 -3.77146
2129 3 24.8706 18.0839 7.3559 -3.91214 -5.52409 -4.98651
1228 3 23.0438 17.8019 5.69601 2.20955 -1.61535 -2.61547
1231 3 25.0994 19.5509 5.31018 5.75929 1.32853 -5.86113
1288 1 23.0538 21.2225 5.06441 8.63152 -2.40636 -2.9958
2126 3 23.1556 19.8339 6.81307 -6.82592 -2.91896 -4.37463
2189 1 24.8496 21.6875 7.07144 10.3969 -1.09572 -2.44203
1292 3 26.6494 21.3452 5.04731 2.77267 -7.11681 0.609032
1232 2 26.6503 17.9573 5.25806 1.15068 -2.81977 0.877883
1267 2 3.42137 23.4326 5.17956 1.09117 -1.51281 6.00344
1324 3 1.58348 25.4165 5.1581 5.20926 1.58066 -0.660393
2162 3 1.46178 23.4044 6.71092 -2.05146 1.3418 -3.32866
2225 2 3.2554 25.3099 7.1906 -0.957508 -1.58225 -0.196624
2167 3 3.33059 23.294 8.71558 0.447202 -0.163427 -6.2617
1271 2 6.91061 23.3558 5.34367 -1.34828 2.43654 -1.71571
1328 1 4.85802 25.3094 5.46559 5.65523 -5.67868 0.623567
2166 1 4.98524 23.2702 6.68739 0.51338 -3.88193 -2.43023
2229 2 6.85827 25.1454 7.19375 -0.764668 -11.4413 -0.594943
2170 3 8.77237 23.3312 6.98654 -0.292021 -1.77137 2.19231
1332 3 8.54154 25.1809 5.15688 3.53292 4.51281 1.01264
2232 1 8.73219 25.3123 8.67729 0.661358 2.44214 4.26366