 # Fcc Ni oriented X=[100] Y=[010] Z=[001].
 
       13500  atoms
           3  atom types
 
      0.000000000000      53.520000000000  xlo xhi
      0.000000000000      53.520000000000  ylo yhi
      0.000000000000      53.520000000000  zlo zhi
 
Masses
 
            1   58.93319500             # Co
            2   51.99610000             # Cr
            3   58.69340000             # Ni
 
Atoms # atomic
 
         1    1        0.000000000000       0.000000000000       0.000000000000
         2    2        1.784000000000       1.784000000000       0.000000000000
         3    3        0.000000000000       1.784000000000       1.784000000000
         4    1        1.784000000000       0.000000000000       1.784000000000
         5    2        3.568000000000       0.000000000000       0.000000000000
         6    3        5.352000000000       1.784000000000       0.000000000000
         7    1        3.568000000000       1.784000000000       1.784000000000
         8    3        5.352000000000       0.000000000000       1.784000000000
         9    2        7.136000000000       0.000000000000       0.000000000000
        10    1        8.920000000000       1.784000000000       0.000000000000
        11    1        7.136000000000       1.784000000000       1.784000000000
        12    2        8.920000000000       0.000000000000       1.784000000000
        13    1       10.704000000000       0.000000000000       0.000000000000
        14    1       12.488000000000       1.784000000000       0.000000000000
        15    3       10.704000000000       1.784000000000       1.784000000000
        16    3       12.488000000000       0.000000000000       1.784000000000
        17    1       14.272000000000       0.000000000000       0.000000000000
        18    2       16.056000000000       1.784000000000       0.000000000000
        19    2       14.272000000000       1.784000000000       1.784000000000
        20    1       16.056000000000       0.000000000000       1.784000000000
        21    2       17.840000000000       0.000000000000       0.000000000000
        22    2       19.624000000000       1.784000000000       0.000000000000
        23    3       17.840000000000       1.784000000000       1.784000000000
        24    1       19.624000000000       0.000000000000       1.784000000000
        25    3       21.408000000000       0.000000000000       0.000000000000
        26    1       23.192000000000       1.784000000000       0.000000000000
        27    3       21.408000000000       1.784000000000       1.784000000000
        28    1       23.192000000000       0.000000000000       1.784000000000
        29    1       24.976000000000       0.000000000000       0.000000000000
        30    1       26.760000000000       1.784000000000       0.000000000000
        31    3       24.976000000000       1.784000000000       1.784000000000
        32    3       26.760000000000       0.000000000000       1.784000000000
        33    3       28.544000000000       0.000000000000       0.000000000000
        34    3       30.328000000000       1.784000000000       0.000000000000
        35    2       28.544000000000       1.784000000000       1.784000000000
        36    3       30.328000000000       0.000000000000       1.784000000000
        37    1       32.112000000000       0.000000000000       0.000000000000
        38    1       33.896000000000       1.784000000000       0.000000000000
        39    1       32.112000000000       1.784000000000       1.784000000000
        40    2       33.896000000000       0.000000000000       1.784000000000
        41    3       35.680000000000       0.000000000000       0.000000000000
        42    3       37.464000000000       1.784000000000       0.000000000000
        43    1       35.680000000000       1.784000000000       1.784000000000
        44    3       37.464000000000       0.000000000000       1.784000000000
        45    1       39.248000000000       0.000000000000       0.000000000000
        46    3       41.032000000000       1.784000000000       0.000000000000
        47    3       39.248000000000       1.784000000000       1.784000000000
        48    3       41.032000000000       0.000000000000       1.784000000000
        49    3       42.816000000000       0.000000000000       0.000000000000
        50    3       44.600000000000       1.784000000000       0.000000000000
        51    3       42.816000000000       1.784000000000       1.784000000000
        52    3       44.600000000000       0.000000000000       1.784000000000
        53    3       46.384000000000       0.000000000000       0.000000000000
        54    3       48.168000000000       1.784000000000       0.000000000000
        55    2       46.384000000000       1.784000000000       1.784000000000
        56    1       48.168000000000       0.000000000000       1.784000000000
        57    1       49.952000000000       0.000000000000       0.000000000000
        58    3       51.736000000000       1.784000000000       0.000000000000
        59    1       49.952000000000       1.784000000000       1.784000000000
        60    1       51.736000000000       0.000000000000       1.784000000000
        61    1        0.000000000000       3.568000000000       0.000000000000
        62    2        1.784000000000       5.352000000000       0.000000000000
        63    2        0.000000000000       5.352000000000       1.784000000000
        64    1        1.784000000000       3.568000000000       1.784000000000
        65    1        3.568000000000       3.568000000000       0.000000000000
        66    2        5.352000000000       5.352000000000       0.000000000000
        67    1        3.568000000000       5.352000000000       1.784000000000
        68    2        5.352000000000       3.568000000000       1.784000000000
        69    2        7.136000000000       3.568000000000       0.000000000000
        70    2        8.920000000000       5.352000000000       0.000000000000
        71    1        7.136000000000       5.352000000000       1.784000000000
        72    2        8.920000000000       3.568000000000       1.784000000000
        73    3       10.704000000000       3.568000000000       0.000000000000
        74    1       12.488000000000       5.352000000000       0.000000000000
        75    2       10.704000000000       5.352000000000       1.784000000000
        76    1       12.488000000000       3.568000000000       1.784000000000
        77    1       14.272000000000       3.568000000000       0.000000000000
        78    3       16.056000000000       5.352000000000       0.000000000000
        79    3       14.272000000000       5.352000000000       1.784000000000
        80    3       16.056000000000       3.568000000000       1.784000000000
        81    2       17.840000000000       3.568000000000       0.000000000000
        82    2       19.624000000000       5.352000000000       0.000000000000
        83    2       17.840000000000       5.352000000000       1.784000000000
        84    1       19.624000000000       3.568000000000       1.784000000000
        85    2       21.408000000000       3.568000000000       0.000000000000
        86    1       23.192000000000       5.352000000000       0.000000000000
        87    1       21.408000000000       5.352000000000       1.784000000000
        88    3       23.192000000000       3.568000000000       1.784000000000
        89    1       24.976000000000       3.568000000000       0.000000000000
        90    1       26.760000000000       5.352000000000       0.000000000000
        91    1       24.976000000000       5.352000000000       1.784000000000
        92    1       26.760000000000       3.568000000000       1.784000000000
        93    2       28.544000000000       3.568000000000       0.000000000000
        94    3       30.328000000000       5.352000000000       0.000000000000
        95    2       28.544000000000       5.352000000000       1.784000000000
        96    1       30.328000000000       3.568000000000       1.784000000000
        97    1       32.112000000000       3.568000000000       0.000000000000
        98    1       33.896000000000       5.352000000000       0.000000000000
        99    2       32.112000000000       5.352000000000       1.784000000000
       100    1       33.896000000000       3.568000000000       1.784000000000
       101    1       35.680000000000       3.568000000000       0.000000000000
       102    1       37.464000000000       5.352000000000       0.000000000000
       103    1       35.680000000000       5.352000000000       1.784000000000
       104    1       37.464000000000       3.568000000000       1.784000000000
       105    3       39.248000000000       3.568000000000       0.000000000000
       106    1       41.032000000000       5.352000000000       0.000000000000
       107    3       39.248000000000       5.352000000000       1.784000000000
       108    3       41.032000000000       3.568000000000       1.784000000000
       109    2       42.816000000000       3.568000000000       0.000000000000
       110    3       44.600000000000       5.352000000000       0.000000000000
       111    1       42.816000000000       5.352000000000       1.784000000000
       112    3       44.600000000000       3.568000000000       1.784000000000
       113    1       46.384000000000       3.568000000000       0.000000000000
       114    1       48.168000000000       5.352000000000       0.000000000000
       115    1       46.384000000000       5.352000000000       1.784000000000
       116    1       48.168000000000       3.568000000000       1.784000000000
       117    1       49.952000000000       3.568000000000       0.000000000000
       118    2       51.736000000000       5.352000000000       0.000000000000
       119    3       49.952000000000       5.352000000000       1.784000000000
       120    2       51.736000000000       3.568000000000       1.784000000000
       121    2        0.000000000000       7.136000000000       0.000000000000
       122    3        1.784000000000       8.920000000000       0.000000000000
       123    3        0.000000000000       8.920000000000       1.784000000000
       124    1        1.784000000000       7.136000000000       1.784000000000
       125    3        3.568000000000       7.136000000000       0.000000000000
       126    3        5.352000000000       8.920000000000       0.000000000000
       127    2        3.568000000000       8.920000000000       1.784000000000
       128    1        5.352000000000       7.136000000000       1.784000000000
       129    1        7.136000000000       7.136000000000       0.000000000000
       130    1        8.920000000000       8.920000000000       0.000000000000
       131    2        7.136000000000       8.920000000000       1.784000000000
       132    2        8.920000000000       7.136000000000       1.784000000000
       133    2       10.704000000000       7.136000000000       0.000000000000
       134    3       12.488000000000       8.920000000000       0.000000000000
       135    2       10.704000000000       8.920000000000       1.784000000000
       136    3       12.488000000000       7.136000000000       1.784000000000
       137    3       14.272000000000       7.136000000000       0.000000000000
       138    3       16.056000000000       8.920000000000       0.000000000000
       139    1       14.272000000000       8.920000000000       1.784000000000
       140    3       16.056000000000       7.136000000000       1.784000000000
       141    1       17.840000000000       7.136000000000       0.000000000000
       142    1       19.624000000000       8.920000000000       0.000000000000
       143    1       17.840000000000       8.920000000000       1.784000000000
       144    1       19.624000000000       7.136000000000       1.784000000000
       145    3       21.408000000000       7.136000000000       0.000000000000
       146    3       23.192000000000       8.920000000000       0.000000000000
       147    1       21.408000000000       8.920000000000       1.784000000000
       148    3       23.192000000000       7.136000000000       1.784000000000
       149    3       24.976000000000       7.136000000000       0.000000000000
       150    2       26.760000000000       8.920000000000       0.000000000000
       151    2       24.976000000000       8.920000000000       1.784000000000
       152    2       26.760000000000       7.136000000000       1.784000000000
       153    2       28.544000000000       7.136000000000       0.000000000000
       154    2       30.328000000000       8.920000000000       0.000000000000
       155    3       28.544000000000       8.920000000000       1.784000000000
       156    2       30.328000000000       7.136000000000       1.784000000000
       157    2       32.112000000000       7.136000000000       0.000000000000
       158    3       33.896000000000       8.920000000000       0.000000000000
       159    3       32.112000000000       8.920000000000       1.784000000000
       160    1       33.896000000000       7.136000000000       1.784000000000
       161    1       35.680000000000       7.136000000000       0.000000000000
       162    1       37.464000000000       8.920000000000       0.000000000000
       163    1       35.680000000000       8.920000000000       1.784000000000
       164    1       37.464000000000       7.136000000000       1.784000000000
       165    2       39.248000000000       7.136000000000       0.000000000000
       166    2       41.032000000000       8.920000000000       0.000000000000
       167    3       39.248000000000       8.920000000000       1.784000000000
       168    3       41.032000000000       7.136000000000       1.784000000000
       169    1       42.816000000000       7.136000000000       0.000000000000
       170    2       44.600000000000       8.920000000000       0.000000000000
       171    3       42.816000000000       8.920000000000       1.784000000000
       172    3       44.600000000000       7.136000000000       1.784000000000
       173    3       46.384000000000       7.136000000000       0.000000000000
       174    3       48.168000000000       8.920000000000       0.000000000000
       175    2       46.384000000000       8.920000000000       1.784000000000
       176    1       48.168000000000       7.136000000000       1.784000000000
       177    1       49.952000000000       7.136000000000       0.000000000000
       178    1       51.736000000000       8.920000000000       0.000000000000
       179    2       49.952000000000       8.920000000000       1.784000000000
       180    1       51.736000000000       7.136000000000       1.784000000000
       181    2        0.000000000000      10.704000000000       0.000000000000
       182    3        1.784000000000      12.488000000000       0.000000000000
       183    2        0.000000000000      12.488000000000       1.784000000000
       184    2        1.784000000000      10.704000000000       1.784000000000
       185    1        3.568000000000      10.704000000000       0.000000000000
       186    1        5.352000000000      12.488000000000       0.000000000000
       187    2        3.568000000000      12.488000000000       1.784000000000
       188    1        5.352000000000      10.704000000000       1.784000000000
       189    1        7.136000000000      10.704000000000       0.000000000000
       190    3        8.920000000000      12.488000000000       0.000000000000
       191    2        7.136000000000      12.488000000000       1.784000000000
       192    1        8.920000000000      10.704000000000       1.784000000000
       193    1       10.704000000000      10.704000000000       0.000000000000
       194    2       12.488000000000      12.488000000000       0.000000000000
       195    3       10.704000000000      12.488000000000       1.784000000000
       196    1       12.488000000000      10.704000000000       1.784000000000
       197    1       14.272000000000      10.704000000000       0.000000000000
       198    1       16.056000000000      12.488000000000       0.000000000000
       199    3       14.272000000000      12.488000000000       1.784000000000
       200    3       16.056000000000      10.704000000000       1.784000000000
       201    3       17.840000000000      10.704000000000       0.000000000000
       202    1       19.624000000000      12.488000000000       0.000000000000
       203    2       17.840000000000      12.488000000000       1.784000000000
       204    3       19.624000000000      10.704000000000       1.784000000000
       205    3       21.408000000000      10.704000000000       0.000000000000
       206    1       23.192000000000      12.488000000000       0.000000000000
       207    2       21.408000000000      12.488000000000       1.784000000000
       208    3       23.192000000000      10.704000000000       1.784000000000
       209    3       24.976000000000      10.704000000000       0.000000000000
       210    2       26.760000000000      12.488000000000       0.000000000000
       211    1       24.976000000000      12.488000000000       1.784000000000
       212    1       26.760000000000      10.704000000000       1.784000000000
       213    3       28.544000000000      10.704000000000       0.000000000000
       214    2       30.328000000000      12.488000000000       0.000000000000
       215    1       28.544000000000      12.488000000000       1.784000000000
       216    2       30.328000000000      10.704000000000       1.784000000000
       217    2       32.112000000000      10.704000000000       0.000000000000
       218    1       33.896000000000      12.488000000000       0.000000000000
       219    3       32.112000000000      12.488000000000       1.784000000000
       220    3       33.896000000000      10.704000000000       1.784000000000
       221    3       35.680000000000      10.704000000000       0.000000000000
       222    3       37.464000000000      12.488000000000       0.000000000000
       223    3       35.680000000000      12.488000000000       1.784000000000
       224    3       37.464000000000      10.704000000000       1.784000000000
       225    2       39.248000000000      10.704000000000       0.000000000000
       226    2       41.032000000000      12.488000000000       0.000000000000
       227    3       39.248000000000      12.488000000000       1.784000000000
       228    2       41.032000000000      10.704000000000       1.784000000000
       229    1       42.816000000000      10.704000000000       0.000000000000
       230    3       44.600000000000      12.488000000000       0.000000000000
       231    1       42.816000000000      12.488000000000       1.784000000000
       232    1       44.600000000000      10.704000000000       1.784000000000
       233    3       46.384000000000      10.704000000000       0.000000000000
       234    1       48.168000000000      12.488000000000       0.000000000000
       235    1       46.384000000000      12.488000000000       1.784000000000
       236    3       48.168000000000      10.704000000000       1.784000000000
       237    3       49.952000000000      10.704000000000       0.000000000000
       238    3       51.736000000000      12.488000000000       0.000000000000
       239    3       49.952000000000      12.488000000000       1.784000000000
       240    1       51.736000000000      10.704000000000       1.784000000000
       241    1        0.000000000000      14.272000000000       0.000000000000
       242    1        1.784000000000      16.056000000000       0.000000000000
       243    2        0.000000000000      16.056000000000       1.784000000000
       244    3        1.784000000000      14.272000000000       1.784000000000
       245    1        3.568000000000      14.272000000000       0.000000000000
       246    3        5.352000000000      16.056000000000       0.000000000000
       247    3        3.568000000000      16.056000000000       1.784000000000
       248    1        5.352000000000      14.272000000000       1.784000000000
       249    1        7.136000000000      14.272000000000       0.000000000000
       250    3        8.920000000000      16.056000000000       0.000000000000
       251    2        7.136000000000      16.056000000000       1.784000000000
       252    1        8.920000000000      14.272000000000       1.784000000000
       253    3       10.704000000000      14.272000000000       0.000000000000
       254    3       12.488000000000      16.056000000000       0.000000000000
       255    1       10.704000000000      16.056000000000       1.784000000000
       256    2       12.488000000000      14.272000000000       1.784000000000
       257    2       14.272000000000      14.272000000000       0.000000000000
       258    1       16.056000000000      16.056000000000       0.000000000000
       259    3       14.272000000000      16.056000000000       1.784000000000
       260    1       16.056000000000      14.272000000000       1.784000000000
       261    3       17.840000000000      14.272000000000       0.000000000000
       262    3       19.624000000000      16.056000000000       0.000000000000
       263    1       17.840000000000      16.056000000000       1.784000000000
       264    1       19.624000000000      14.272000000000       1.784000000000
       265    3       21.408000000000      14.272000000000       0.000000000000
       266    2       23.192000000000      16.056000000000       0.000000000000
       267    2       21.408000000000      16.056000000000       1.784000000000
       268    1       23.192000000000      14.272000000000       1.784000000000
       269    3       24.976000000000      14.272000000000       0.000000000000
       270    2       26.760000000000      16.056000000000       0.000000000000
       271    2       24.976000000000      16.056000000000       1.784000000000
       272    2       26.760000000000      14.272000000000       1.784000000000
       273    2       28.544000000000      14.272000000000       0.000000000000
       274    2       30.328000000000      16.056000000000       0.000000000000
       275    1       28.544000000000      16.056000000000       1.784000000000
       276    2       30.328000000000      14.272000000000       1.784000000000
       277    3       32.112000000000      14.272000000000       0.000000000000
       278    1       33.896000000000      16.056000000000       0.000000000000
       279    1       32.112000000000      16.056000000000       1.784000000000
       280    3       33.896000000000      14.272000000000       1.784000000000
       281    3       35.680000000000      14.272000000000       0.000000000000
       282    1       37.464000000000      16.056000000000       0.000000000000
       283    1       35.680000000000      16.056000000000       1.784000000000
       284    2       37.464000000000      14.272000000000       1.784000000000
       285    3       39.248000000000      14.272000000000       0.000000000000
       286    2       41.032000000000      16.056000000000       0.000000000000
       287    2       39.248000000000      16.056000000000       1.784000000000
       288    3       41.032000000000      14.272000000000       1.784000000000
       289    1       42.816000000000      14.272000000000       0.000000000000
       290    1       44.600000000000      16.056000000000       0.000000000000
       291    3       42.816000000000      16.056000000000       1.784000000000
       292    1       44.600000000000      14.272000000000       1.784000000000
       293    2       46.384000000000      14.272000000000       0.000000000000
       294    2       48.168000000000      16.056000000000       0.000000000000
       295    3       46.384000000000      16.056000000000       1.784000000000
       296    3       48.168000000000      14.272000000000       1.784000000000
       297    3       49.952000000000      14.272000000000       0.000000000000
       298    2       51.736000000000      16.056000000000       0.000000000000
       299    2       49.952000000000      16.056000000000       1.784000000000
       300    3       51.736000000000      14.272000000000       1.784000000000
       301    2        0.000000000000      17.840000000000       0.000000000000
       302    3        1.784000000000      19.624000000000       0.000000000000
       303    1        0.000000000000      19.624000000000       1.784000000000
       304    1        1.784000000000      17.840000000000       1.784000000000
       305    2        3.568000000000      17.840000000000       0.000000000000
       306    2        5.352000000000      19.624000000000       0.000000000000
       307    2        3.568000000000      19.624000000000       1.784000000000
       308    1        5.352000000000      17.840000000000       1.784000000000
       309    3        7.136000000000      17.840000000000       0.000000000000
       310    1        8.920000000000      19.624000000000       0.000000000000
       311    1        7.136000000000      19.624000000000       1.784000000000
       312    1        8.920000000000      17.840000000000       1.784000000000
       313    1       10.704000000000      17.840000000000       0.000000000000
       314    3       12.488000000000      19.624000000000       0.000000000000
       315    1       10.704000000000      19.624000000000       1.784000000000
       316    3       12.488000000000      17.840000000000       1.784000000000
       317    1       14.272000000000      17.840000000000       0.000000000000
       318    3       16.056000000000      19.624000000000       0.000000000000
       319    3       14.272000000000      19.624000000000       1.784000000000
       320    1       16.056000000000      17.840000000000       1.784000000000
       321    3       17.840000000000      17.840000000000       0.000000000000
       322    2       19.624000000000      19.624000000000       0.000000000000
       323    1       17.840000000000      19.624000000000       1.784000000000
       324    2       19.624000000000      17.840000000000       1.784000000000
       325    3       21.408000000000      17.840000000000       0.000000000000
       326    3       23.192000000000      19.624000000000       0.000000000000
       327    3       21.408000000000      19.624000000000       1.784000000000
       328    2       23.192000000000      17.840000000000       1.784000000000
       329    3       24.976000000000      17.840000000000       0.000000000000
       330    3       26.760000000000      19.624000000000       0.000000000000
       331    2       24.976000000000      19.624000000000       1.784000000000
       332    3       26.760000000000      17.840000000000       1.784000000000
       333    3       28.544000000000      17.840000000000       0.000000000000
       334    3       30.328000000000      19.624000000000       0.000000000000
       335    1       28.544000000000      19.624000000000       1.784000000000
       336    1       30.328000000000      17.840000000000       1.784000000000
       337    1       32.112000000000      17.840000000000       0.000000000000
       338    1       33.896000000000      19.624000000000       0.000000000000
       339    2       32.112000000000      19.624000000000       1.784000000000
       340    1       33.896000000000      17.840000000000       1.784000000000
       341    3       35.680000000000      17.840000000000       0.000000000000
       342    2       37.464000000000      19.624000000000       0.000000000000
       343    1       35.680000000000      19.624000000000       1.784000000000
       344    3       37.464000000000      17.840000000000       1.784000000000
       345    3       39.248000000000      17.840000000000       0.000000000000
       346    3       41.032000000000      19.624000000000       0.000000000000
       347    3       39.248000000000      19.624000000000       1.784000000000
       348    3       41.032000000000      17.840000000000       1.784000000000
       349    3       42.816000000000      17.840000000000       0.000000000000
       350    1       44.600000000000      19.624000000000       0.000000000000
       351    1       42.816000000000      19.624000000000       1.784000000000
       352    3       44.600000000000      17.840000000000       1.784000000000
       353    1       46.384000000000      17.840000000000       0.000000000000
       354    1       48.168000000000      19.624000000000       0.000000000000
       355    1       46.384000000000      19.624000000000       1.784000000000
       356    3       48.168000000000      17.840000000000       1.784000000000
       357    3       49.952000000000      17.840000000000       0.000000000000
       358    1       51.736000000000      19.624000000000       0.000000000000
       359    1       49.952000000000      19.624000000000       1.784000000000
       360    1       51.736000000000      17.840000000000       1.784000000000
       361    1        0.000000000000      21.408000000000       0.000000000000
       362    1        1.784000000000      23.192000000000       0.000000000000
       363    2        0.000000000000      23.192000000000       1.784000000000
       364    2        1.784000000000      21.408000000000       1.784000000000
       365    1        3.568000000000      21.408000000000       0.000000000000