ITEM: TIMESTEP
76800
ITEM: NUMBER OF ATOMS
13500
ITEM: BOX BOUNDS pp pp pp
-2.8989498630723887e-01 5.3809894986298680e+01
-2.8989498630723887e-01 5.3809894986298680e+01
-2.8989498630723887e-01 5.3809894986298680e+01
ITEM: ATOMS id type x y z vx vy vz
7 1 3.44359 1.6269 1.24235 6.12752 -2.42838 1.69342
64 2 1.71887 3.29695 1.34691 -8.29828 -2.21296 -0.848794
902 2 1.70956 1.60156 3.41629 -1.62219 4.75172 5.99758
965 3 3.71894 3.52728 2.77591 10.4622 -5.45587 1.81287
2 2 1.68627 1.56403 -0.176385 7.3752 -1.09197 -3.84092
4 1 1.39592 -0.0397745 1.59348 1.9827 1.38285 2.2581
905 2 3.52092 0.100395 3.34091 -4.27511 -0.613195 -0.577724
3 2 -0.124121 1.74842 1.40307 -3.76481 -0.740495 -2.28487
1 3 -0.201152 -0.271168 -0.193445 1.18916 -0.675445 -4.22238
5 1 3.41197 -0.182205 -0.156426 -2.7987 5.18951 5.00046
11 1 6.99923 1.41718 1.58466 5.4237 -2.3561 1.65633
68 2 5.67849 3.36768 1.30433 -0.642774 -3.72707 -3.43252
906 3 5.01518 1.6644 2.93338 -5.54235 -1.40088 -4.63748
969 1 6.9485 3.39196 3.28953 0.58539 3.36386 0.894049
909 2 7.1574 -0.272447 3.4906 -1.68682 -1.37393 -1.52197
910 1 8.63448 1.40368 3.52866 4.74317 -2.09158 2.07241
72 2 8.66667 2.96514 1.38565 -8.48995 1.01217 -3.95267
15 2 10.6761 1.70181 1.50259 -1.27573 -5.23759 -7.68326
76 2 12.3363 3.70828 1.47466 4.66144 2.383 -10.1995
914 1 12.6568 1.7507 2.93173 -7.51521 3.96933 2.12357
973 1 10.5843 3.23764 3.24009 -3.01495 1.19141 -2.24119
913 3 10.7161 -0.185924 3.38384 -4.4735 -6.27018 -0.881385
12 3 8.85457 -0.10064 1.08775 -0.555682 -2.25777 -3.16018
19 3 14.3386 1.41159 1.21739 -4.55751 -2.21931 9.69469
80 1 15.6905 3.7397 1.47066 7.72369 -2.64476 -1.4529
918 1 15.922 1.75439 3.2014 -3.30728 2.38012 -4.95584
977 2 14.2709 3.61664 3.12691 1.88912 -6.14483 4.56059
981 2 17.578 3.57031 2.92 -1.45711 -3.94725 3.63561
917 2 14.254 -0.162347 2.83574 -4.30085 -0.98855 0.61904
20 2 16.2148 -0.0959771 1.32422 -8.1295 -0.502921 7.07463
921 1 17.3903 -0.0835346 3.32877 1.20499 -2.36815 -1.06628
23 3 17.7992 1.63926 1.15451 -1.26017 -3.41124 2.02501
27 3 21.0508 1.36106 1.53715 -0.405767 -7.8151 6.69345
84 2 19.3495 3.36413 1.28675 5.29038 3.12366 -8.73364
922 3 19.2496 1.72329 3.30681 -0.269714 6.02838 3.4087
985 3 21.3196 3.29034 2.99535 -2.92666 -0.943457 0.0391013
24 3 19.1185 -0.0827992 1.62626 -0.216056 0.70851 0.0876487
25 2 20.7246 -0.262049 -0.14467 1.16764 4.39192 -1.62131
31 2 24.6046 1.61585 1.48785 -4.40665 1.9884 -4.69029
88 1 23.3017 3.41226 1.38619 4.57563 -0.487383 0.0648597
926 3 22.8162 1.28106 3.31101 4.24308 -2.3022 1.15976
989 3 24.9697 3.26372 3.3998 6.60515 -1.02125 -3.84215
930 2 26.6052 1.67687 3.20344 -3.32196 5.74557 2.83501
92 3 26.6322 3.41736 1.40824 0.855102 -4.29737 -4.99971
32 1 26.5652 -0.0395407 1.4305 -2.67919 -0.763018 -5.94629
929 3 24.8488 -0.123858 3.22322 -3.4264 3.9513 2.62301
67 2 3.71163 4.91533 1.0939 0.363078 -4.08969 0.834089
124 1 1.40709 7.06352 1.33792 0.373265 -2.99845 -1.85678
962 2 1.55335 5.20323 2.85196 4.40773 3.40466 1.68613
1025 3 3.48809 6.94657 3.06214 3.13707 4.81395 4.39614
1022 1 1.41718 8.63412 3.23911 -4.54744 -4.36909 2.87642
1021 2 -0.212885 6.95383 3.20949 4.6467 -0.524972 -4.10575
71 3 7.11401 5.05606 1.56462 0.49306 -1.65662 0.0367129
128 1 5.24873 7.27532 1.43155 -4.50057 6.76934 2.92411
966 3 5.24525 5.29758 3.12369 0.930593 0.617763 -0.46412
1029 1 7.00303 6.93348 3.31989 2.67051 0.55027 -1.00708
131 2 7.09549 8.46841 1.37616 -2.80132 10.0993 0.316399
1030 3 8.6701 8.62545 3.3278 0.0889044 2.7406 -4.65595
132 3 8.6976 6.72092 1.24615 3.52923 1.03349 -5.48413
970 2 8.99293 5.02775 3.17917 1.65087 4.03435 -2.51413
75 1 10.5011 4.90004 1.2829 -5.85253 7.3142 1.39351
136 2 12.1697 6.79193 1.63845 0.12569 -2.71682 -3.35338
974 1 12.0567 5.11516 3.24689 -1.3394 1.91062 2.26448
1033 1 10.2932 6.72252 3.22673 3.26307 0.547456 -3.4466
1034 2 12.0819 8.49721 2.8284 0.404108 0.707235 -0.539882
79 1 14 5.33974 1.08217 -4.03871 1.40569 1.54015
140 1 15.5974 7.13397 1.3265 -7.47339 -0.213686 -2.15304
978 3 15.9121 5.64247 3.07738 0.442129 -0.278015 -0.884848
1037 1 14.011 6.92858 3.24279 2.90813 -5.56026 5.58845
1038 2 15.8411 8.72891 3.23542 1.61015 3.16593 0.89849
83 3 17.4807 5.53878 1.2057 -0.906545 0.119426 -4.33018
143 3 17.8707 8.68073 1.23938 1.55277 6.74482 0.563078
1041 3 18.0778 6.98619 3.20481 -8.1768 5.92159 4.3976
87 2 21.7119 4.93792 1.50177 -4.91387 -2.38472 0.93632
144 3 19.6231 6.77754 1.13136 0.965443 -5.77465 -3.51943
982 1 19.6856 5.03535 2.87354 -3.16556 -4.54052 -6.77756
1045 3 21.498 7.21641 3.08576 2.41739 -5.25245 4.80617
91 2 24.821 5.08162 1.39794 -12.175 -4.5505 3.33673
148 2 23.4559 7.19664 1.70685 -0.477562 0.235175 -1.27854
986 3 23.2489 5.10368 3.33625 -2.16859 -1.30158 4.38787
1049 1 25.0736 6.93585 3.47698 -0.988463 -6.43683 2.31999
152 2 26.4892 7.15583 1.36403 -0.389285 -2.16636 4.08354
127 2 3.12877 8.86538 1.34212 10.0963 5.30161 1.73964
184 3 1.43755 10.7441 1.54078 -4.48852 -1.29673 0.518603
187 3 3.21578 12.328 1.30162 0.418232 -1.00273 -1.81475
1082 3 1.38965 12.3011 3.15228 -0.791707 -3.37307 -1.18565
1085 1 3.20465 10.4969 3.07178 6.99454 0.271967 -1.36944
1026 2 5.00872 8.82291 3.28081 5.34971 0.364048 -2.85958
188 3 4.96218 10.3965 1.14998 -6.11874 2.45432 -2.72767
191 3 6.83229 12.6861 1.13195 -1.70843 3.46427 1.2032
1086 3 5.09972 12.2167 3.09577 6.57584 5.89139 -6.10353
1089 3 6.71777 10.4883 2.96673 -0.458024 4.36179 -4.41781
192 3 8.40096 10.6139 1.46587 -0.826322 3.50011 -0.161199
135 3 10.3911 8.80109 1.29631 -2.30201 3.62906 -0.518514
1090 1 8.87724 12.3623 3.16328 -4.38227 -2.19086 2.27453
195 2 9.97581 12.4136 1.34541 0.167636 -0.0153789 4.47362
196 1 12.0983 10.8764 1.68283 2.01334 -4.44617 4.06332
1093 2 10.2562 10.3718 3.35297 4.38673 0.876029 -4.46391
1094 2 12.0588 12.5794 2.90333 -3.31125 -4.72172 5.75733
139 2 13.8515 8.86706 1.24544 -3.86678 -1.44639 1.20774
199 2 13.935 12.3083 1.43405 0.432704 7.21101 8.87436
200 3 15.7669 10.3232 1.41901 0.275011 2.58389 -1.61728
1097 1 14.039 10.3997 3.14941 -3.15846 6.47908 3.61535
1098 3 15.9602 12.4764 2.90238 -2.69947 0.864047 -4.85676
203 3 17.5759 12.2705 1.15198 -2.15527 -3.55065 -0.409899
1101 3 17.517 10.7876 3.24908 -0.077794 2.20134 0.177777
1042 3 19.5199 8.88784 3.35185 -7.49612 -5.17864 0.0827356
147 3 21.3954 9.06029 1.33905 1.39256 1.78493 -0.361277
204 2 19.5153 10.4884 1.42305 1.94223 -1.68382 -1.68212
207 3 21.4031 12.4034 1.3054 1.16592 -4.75898 -4.43504
1102 2 19.7503 12.4418 3.05957 1.45936 5.02651 1.13995
1105 1 21.2567 10.5561 3.33543 -0.939191 -7.19743 0.831918
1050 2 26.6461 8.77273 3.17848 -0.635328 -1.83805 3.7178
151 3 24.9715 8.89724 1.38139 -4.26428 1.7666 7.38354
1046 1 23.4672 9.07765 3.05627 8.03321 -0.820041 0.578729
208 3 23.2239 10.5706 1.21398 0.230344 -2.54208 3.27445
211 3 24.8098 12.2813 1.18017 -3.1321 4.23478 -0.914148
1106 2 22.9098 12.4869 3.37864 1.89183 -4.72482 -2.2187
1109 2 24.8432 10.7802 3.16006 1.80833 3.57734 -5.32259
1110 2 26.6804 12.4532 2.95211 -2.41381 -5.95536 -7.77916
212 1 26.6569 10.3568 1.44009 -1.69456 -2.32097 -0.499973
244 3 1.50875 14.0952 1.23407 -0.298037 -1.92617 -2.24131
247 3 3.28309 16.0199 1.4016 -0.0588741 2.58588 -0.508224
1142 1 1.54978 15.9895 3.16485 3.61687 9.45675 3.42414
1145 1 3.51575 14.4758 2.99643 0.476161 -1.1596 -3.14288
243 3 -0.254391 15.9497 1.14931 1.02082 3.35651 3.93876
248 3 5.12042 14.3482 1.44735 -3.30823 -6.11218 -6.44192
251 1 6.74998 16.1173 1.44995 -0.987093 3.38529 0.762705
1146 2 5.14924 15.8912 3.40144 -2.23098 -3.99026 -11.7048
1149 1 6.82937 14.3185 3.22018 4.64906 -6.68909 -0.98647
250 3 8.39224 15.988 -0.239672 3.44494 2.97192 0.703467
1150 3 8.77879 16.3067 2.94634 4.29226 -0.476861 -5.27388
252 2 8.81147 14.2433 1.32379 -4.05508 10.2118 -4.18797
255 2 10.596 16.0464 1.21149 -1.09528 1.17009 -0.771586
256 1 12.1218 14.1241 1.31417 4.09001 4.65934 -0.553408
1153 1 10.6439 14.3897 3.1504 -1.79176 -8.4609 -4.19655
1154 2 12.614 15.7759 2.93914 -3.49203 -0.222698 -4.34239
316 1 12.5988 17.6534 1.33679 -1.79747 1.93492 7.86771
259 1 14.0272 15.9308 1.21213 1.54104 -1.98664 0.130338
260 2 15.7252 13.8135 1.02782 0.178073 -0.112612 -6.68761
1157 1 14.1328 13.9646 2.94202 -2.51255 3.05133 1.7141
1158 2 15.6595 15.8432 2.8051 -2.32621 3.32664 -1.07154
1161 3 17.7253 14.1004 2.93437 2.92417 -3.27332 1.36265
1221 1 17.5102 17.3406 2.99035 0.736857 4.39896 6.08802
263 3 17.4789 15.9354 0.950134 -6.47433 -3.55092 -1.26259
264 1 19.2495 14.1889 1.19459 -1.39723 6.24135 -2.88426
267 1 21.2388 15.6575 1.23322 -3.32635 -1.39837 4.5868
1162 2 19.3183 15.8417 2.92402 6.00017 -2.11984 -2.51592
1165 3 21.3043 14.161 3.03974 -1.98416 4.06166 -0.892377
1225 3 21.2055 17.4911 2.86728 2.67253 1.25547 6.31739
324 3 19.3209 17.6501 1.18615 -3.26343 -5.10367 -1.75226
272 1 26.6239 14.1146 1.36154 2.64455 -3.29769 -1.15777
268 1 23.3169 14.176 1.04238 -2.30882 0.669725 -4.11613
271 2 24.9164 16.0753 1.29801 1.68108 2.00351 2.53232
1166 2 23.018 16.0134 3.07024 -3.67426 2.65612 5.67787
1169 1 24.6902 14.0854 2.97727 -0.988977 1.55162 -1.43388
1170 3 26.4322 15.7526 3.07993 -0.00522648 2.32686 -0.823792
266 2 22.8465 15.8593 -0.164275 -0.0251852 0.28189 0.882997
304 2 1.43706 17.9339 1.49062 -1.67626 1.28018 -3.34308
1205 1 3.11744 17.9125 3.21639 6.89878 -5.67074 0.542433
307 2 3.19662 19.685 1.31181 -2.25536 0.0827817 -6.77931
364 1 1.65111 21.3586 1.31665 -3.46341 1.51551 -6.5969
1202 2 1.22224 19.6257 3.05943 0.259928 -1.05806 5.77133
1265 3 3.14627 21.4135 3.2007 5.13817 2.67865 3.88138
303 1 -0.119175 19.5871 1.11841 0.605644 1.78073 1.03623
308 2 5.24808 17.8697 1.462 -3.87122 0.956311 -3.1713
1209 3 7.02156 17.8417 3.24796 -2.92764 -2.1772 -4.85991
311 3 7.15908 19.3757 1.41435 2.5966 -4.51153 -4.56996
368 1 5.22548 21.1287 1.40313 -4.7937 -3.68158 0.98446
1206 2 5.10435 19.4094 3.11404 -0.173595 -1.10642 3.65422
1269 2 7.02771 21.0248 3.35038 -1.21069 5.00571 -1.85228
1213 1 10.835 17.9061 3.28248 -4.08456 5.76297 3.00773
372 1 9.02609 21.2378 1.16605 4.18271 2.12379 -1.17066
312 2 9.00884 18.0203 1.25835 -0.0805796 6.25036 -1.91821
1210 1 8.81994 19.5067 3.48466 2.99556 1.43904 -3.05399
315 1 10.8248 19.6893 1.29066 14.6464 -2.87365 4.95262
376 3 12.7544 21.4015 1.28196 -0.97555 -3.88979 -1.75472
1214 1 12.6105 19.4464 3.19568 7.07241 -2.97444 -6.95829
1273 2 10.5883 21.1057 3.34582 1.04532 0.541076 -0.0135526
320 3 15.9818 17.8789 1.15531 -1.85544 -2.32397 -1.93221
1217 2 14.1048 17.8028 3.12177 5.05065 -8.05127 -10.762
319 3 14.499 19.5602 1.17674 -4.13929 2.16795 -2.52058
380 3 16.1632 21.45 1.45651 -3.69787 1.46347 2.023
1218 3 15.8114 19.6269 3.10728 -0.155456 0.936806 -0.773007
1277 3 14.2293 21.4627 2.96933 -1.84958 5.22398 6.17351
323 3 17.8075 19.578 1.27313 0.232745 1.7674 -1.08736
1281 3 17.7443 21.4559 3.28731 -4.0343 -4.99305 -2.83518
327 1 21.2493 19.5755 1.48531 5.57136 0.362085 2.34512
384 3 19.2377 21.4202 1.30104 -0.933452 5.84396 1.22661
1222 2 19.4457 19.4776 3.06315 0.406317 -4.39688 -2.99425
1285 1 21.4652 21.0184 3.1775 1.93867 -1.29138 0.53936
1229 1 24.7613 17.8552 3.23789 -0.327357 -0.812665 -0.0656913
328 1 23.0271 17.7782 1.51618 -2.09363 -3.50836 -5.27888
331 2 24.6611 19.6809 1.49327 1.6966 4.82635 -0.738108
388 1 22.7896 21.2954 1.28871 1.26049 -1.00368 -2.50917
1226 2 23.1327 19.6556 3.17171 1.65005 9.31646 0.209853
1289 1 24.9129 21.3396 3.11298 2.20399 -1.13631 1.36148
392 1 26.7463 21.5233 1.56157 4.13208 -3.01137 6.07982
330 3 26.65 19.7484 -0.201793 -0.268784 -0.785128 -5.85569
332 2 26.2059 17.8598 1.45176 -0.092429 -4.75589 -11.0105
389 2 24.5543 21.3338 -0.137124 -5.73922 -3.72052 -1.2645
367 1 3.55163 23.024 1.39221 5.07208 -7.30516 1.30075
424 1 1.58381 25.0187 1.45301 -0.193546 -1.56027 -7.28342
1262 2 1.61559 23.0713 3.14624 -1.01476 5.65411 0.443292
1325 1 3.44702 25.0288 3.09647 -6.68948 2.11271 -1.57263
422 1 1.67566 26.7113 -0.274386 -1.77813 3.0662 -5.89121
363 1 -0.167885 23.1129 1.36094 -1.65883 3.96587 -8.00179
1321 2 0.0153334 25.0198 3.20361 -6.86309 0.32842 3.7263
362 1 1.61232 22.9774 -0.289759 -2.36187 -0.39835 -3.45457
427 2 3.74202 26.3943 1.28084 1.10634 -0.479604 -5.60992
425 2 3.09827 24.6445 -0.24418 -6.61188 5.78443 -4.90217
431 2 7.008 26.6549 1.22437 2.18921 9.60711 -2.96446
371 3 6.8936 22.9744 1.26871 -1.7019 0.805252 6.41455
428 1 5.25483 24.6251 1.49104 8.65151 -1.03795 -1.30783
1266 3 5.35688 22.7204 3.07613 4.62056 -0.00393511 7.75569
1329 2 7.01206 24.7381 3.16253 -3.36597 3.60299 0.333165
1330 3 8.70972 26.7232 3.02079 6.37147 8.17502 -3.29548
1270 2 8.90253 23.0738 2.97015 -0.782884 -4.53143 -8.29459
432 1 8.95153 24.8324 1.31909 2.99162 -0.10067 -2.59471
375 3 11.0156 23.0366 1.36868 -1.58175 1.15315 -0.38378
436 1 12.2916 25.0801 1.24265 0.835322 -5.96377 -6.03211
1274 3 12.3787 23.4391 3.23781 0.836517 0.108131 -3.7267
1333 2 10.5487 25.3838 2.97247 2.00476 -2.57032 -4.8658
370 2 9.18616 22.8935 -0.279399 -0.968073 4.43465 -8.49789
1334 2 12.5281 26.6442 3.28931 6.57604 0.640402 -0.0764019
379 2 14.2198 23.3505 1.06565 -6.49206 2.80379 7.88905
440 3 16.0248 25.0382 1.32611 -0.543638 1.76412 1.07409
1278 1 15.7104 23.3447 3.28976 0.213962 -3.0526 2.83011
1337 1 14.0852 25.0238 3.11526 1.7239 -0.340226 -0.0268283
1341 3 17.5203 25.0344 3.40028 1.35866 -6.72385 -2.93475
439 2 14.2039 26.687 0.912748 2.11973 4.13797 0.0233777
383 3 17.8269 23.315 1.77476 6.37436 -2.66484 1.19337
387 2 21.3628 23.0835 1.34753 -2.58019 -4.15677 -1.14771
444 3 19.566 24.9708 1.19564 -6.68178 4.57193 2.6034
1282 3 19.5931 23.2044 3.21264 -2.19145 0.336376 -2.43595
1345 2 21.2124 25.2419 3.45746 0.445867 -5.91594 5.38472
447 1 21.0579 26.6997 1.22724 -2.36679 -4.34679 3.91336
452 3 26.6362 25.2184 1.5571 -0.614991 -7.60811 7.08799
391 2 24.828 23.2901 1.5868 -4.76683 1.12175 0.35125
448 2 22.8861 25.0081 1.79374 -0.143218 9.19093 -3.84188
1286 2 23.0294 23.2607 3.42371 -0.488595 6.43563 -1.2367
1349 1 24.8677 25.4421 3.30878 1.22557 -0.26266 5.78274
1290 2 26.525 23.2442 3.29373 4.32864 -2.56232 -5.14757
449 2 24.6164 24.9784 -0.258857 3.89474 4.35883 -1.65087
907 1 3.348 1.61136 4.98561 -5.51347 1.33877 2.8588
964 1 1.72801 3.57009 4.79966 -3.50387 -0.291581 0.450737
1802 2 1.39373 1.53267 6.75541 1.3156 -0.646124 -2.63708
1865 2 3.55364 3.18207 6.88168 -5.15239 2.86986 1.07106
1864 3 1.62544 3.30477 8.6322 -0.73866 5.02266 2.74837
1807 3 3.51488 1.71969 8.56607 -4.33357 7.2646 -2.97068
903 1 -0.0944205 1.66705 5.06658 -1.08281 1.95361 -2.62195
1861 2 -0.210063 3.41848 6.5748 2.50396 4.44019 -2.49665
904 2 1.29443 -0.142345 4.82931 7.43438 0.885495 -7.78437
911 2 6.9744 1.64553 5.16902 -4.74174 -4.11141 2.10395
968 1 5.02334 3.23887 4.81649 3.44365 0.693071 1.15424
1806 2 5.08657 1.55673 6.61268 -2.12212 -4.62214 0.168323
1869 3 6.75283 3.20823 6.98233 -1.20387 0.923566 8.63822
1810 3 8.58479 1.75776 7.07663 -3.20631 -6.58757 2.86419
1809 1 6.74691 -0.164341 6.99071 -2.7636 -2.67505 -6.95834
908 3 5.19468 -0.0436573 5.02926 -0.41924 5.05871 -7.35236
1812 1 8.62146 -0.271977 8.72218 -0.272244 -2.83441 -1.31429
912 3 8.8571 -0.229333 5.40912 -2.37397 2.30832 0.156703
1813 3 10.8842 0.102792 6.73188 1.38425 -3.68866 -1.18374
972 3 8.75845 3.36422 4.98243 -3.4594 -6.41186 6.5155
915 3 10.659 1.64539 4.91802 -1.98483 0.998558 -3.69378
976 1 12.6101 3.67066 5.18079 1.57648 1.09753 2.31795
1814 3 12.4301 1.79476 6.99278 6.35636 0.738887 -5.37627
1873 3 10.5176 3.13243 6.92249 3.36295 2.7042 1.57898
1872 2 8.75905 3.59969 8.55588 -6.87 -5.05123 0.542026
1876 2 12.6234 3.5525 8.50133 2.59717 3.76278 -1.43707
916 1 12.6727 -0.253499 4.908 -1.08898 3.20009 3.70022
919 2 14.1337 1.44914 4.89253 -1.41589 0.267054 -0.664835
980 1 16.0518 3.3894 4.99782 2.36462 0.276783 0.0770633
1818 1 16.0072 1.36028 6.67924 0.896312 0.536704 -0.36695
1877 1 14.1421 3.72053 7.05289 -7.46042 -2.5771 -0.303982
1880 3 16.0106 3.29424 8.53529 -1.13567 -1.12927 4.95732
1819 3 13.9042 1.58935 8.72042 -0.483287 -1.74306 0.00778381
923 2 17.5309 1.54119 5.01834 -6.39576 2.32557 -0.363464
1823 1 17.7179 1.4481 8.4787 3.32568 -1.87462 5.02029
1820 2 15.9112 -0.270281 8.60301 -9.42016 -2.54592 1.0537
1817 3 14.0288 -0.148954 6.94894 -4.18694 0.661676 -0.38203
1881 2 17.669 3.40068 6.64794 -2.2246 -1.40078 -4.55992
927 3 21.0443 1.64305 4.9555 -1.23049 0.361885 -2.89877
984 1 19.3207 3.56292 4.91464 0.690941 -5.81675 4.94853
1822 1 19.3756 1.58422 6.62614 8.2246 -1.18481 0.6803
1885 2 21.2992 3.44301 6.6423 -0.599863 1.7228 -5.67446
1827 1 20.7732 1.79054 8.44308 0.963433 1.13269 -3.67585
924 3 19.2599 -0.204664 4.9295 -5.44538 -1.00005 -6.47622
1884 2 19.3507 3.3922 8.67629 -9.5365 -0.375208 -9.86037
931 3 24.6103 1.67078 5.1031 -0.515131 -2.32904 -0.199683
988 1 22.8965 3.74577 5.18887 -0.0957211 -1.77101 -9.80753
1826 3 22.9163 1.57333 6.85191 5.27107 -0.550922 4.38206
1889 3 24.8106 3.32402 6.93497 -0.314949 -0.370314 5.80373
992 3 26.7353 3.54544 5.19746 8.1206 -1.1184 -2.28593
1830 3 26.6634 1.46957 6.56127 0.626197 -8.09133 0.858734
1829 1 24.6469 -0.247155 7.10953 -10.5562 -5.19359 -0.979435
1831 3 24.9143 1.6221 8.65011 2.25816 3.51058 1.75686
1832 2 26.6155 -0.158669 8.59655 0.00361485 -2.1641 5.68172
1828 1 22.584 -0.136758 8.48577 -12.7131 1.27828 -1.16284
1888 2 22.737 3.17832 8.58999 -0.310541 1.76303 -6.73067
967 2 3.2554 5.25801 4.87467 -3.57941 0.0866859 4.82835
1024 3 1.56602 6.77372 5.06678 -1.66589 -3.23059 -2.94703
1862 2 1.62531 5.15551 7.12598 0.517314 -3.43447 0.374198
1925 1 3.53762 7.05183 6.85107 5.79954 1.65451 7.59041
1867 1 3.25846 5.13745 8.51835 3.44443 2.17345 -2.16858
1924 2 1.29701 6.92669 8.63041 1.23344 -8.38559 2.75571
963 3 -0.0303142 5.30365 4.87911 -2.21246 -0.46451 -0.960301
1863 3 -0.278826 5.27409 8.57068 -1.30059 -0.298584 2.70383
971 2 7.07807 5.13101 4.94134 2.35413 -5.00601 1.12971
1028 1 5.13807 6.66215 5.04865 6.33605 3.77714 -0.224987
1866 3 5.27324 5.21558 6.83863 -1.47624 -5.81977 3.52723
1929 2 6.98799 7.08778 7.00833 -0.901393 -1.51248 5.36983
1928 2 4.96291 7.2909 8.55845 -6.20883 -1.44743 -3.31772
1871 1 6.65651 4.92018 8.69532 -1.32683 5.69069 3.77354
1031 2 6.8979 8.54939 4.95114 -2.78069 -1.25481 2.05794
1926 2 5.1152 8.69889 6.67893 -8.60995 7.62149 5.55549
1870 1 8.50429 5.18659 7.06825 5.26959 2.32076 -1.76462
1032 1 8.69906 6.57314 5.32657 1.27727 -3.09253 4.94899
1932 3 8.52382 7.06201 8.66413 -5.00338 -0.12843 3.20081
975 2 10.3145 4.92673 5.28188 -3.14727 3.86134 4.09311
1036 2 12.1524 7.13005 4.94478 1.40402 -0.797525 1.10241
1874 3 12.1351 5.18404 6.63113 1.27785 -1.477 -2.22775
1933 2 10.3826 7.39846 6.98999 2.32287 7.69475 2.65068
1936 1 12.3008 7.02642 8.55274 -1.3468 1.03055 -1.45972
1875 1 10.4695 5.0817 8.61046 -3.76403 -3.59294 0.548284
979 2 14.402 5.15083 4.84674 -0.719288 1.17369 -5.26586
1040 3 15.9509 7.22796 4.90224 4.48497 -2.51216 -7.17361
1878 2 15.8925 5.22921 6.60682 6.65753 -3.00219 -0.844605
1937 2 13.9348 7.04374 6.51066 4.03439 -3.79292 3.02952
1940 3 15.765 6.88028 8.38786 -4.00324 -5.3966 -1.20352
1883 1 17.7212 5.51806 8.30433 1.62985 0.244037 -3.38276
1941 3 17.6174 7.2356 6.79068 0.753129 -1.15577 0.594299
983 2 17.9498 5.40669 5.1794 1.79134 1.57241 1.52684
987 2 21.1567 5.18135 4.84158 -3.9834 6.88954 0.452689
1044 3 19.6875 7.02793 5.25132 2.49025 -2.3813 1.31004
1882 1 19.6278 5.29002 6.87759 0.0648612 3.624 1.11653
1945 3 21.4964 7.09648 6.91326 2.55077 1.62892 0.0917204
1887 1 21.278 4.91698 8.64102 5.69441 -6.09694 -2.2537
1944 2 19.7991 6.97914 8.4896 -3.59747 0.618895 -6.07702
991 3 24.7394 4.95588 5.19361 6.04291 0.393974 -0.456659
1048 3 23.0441 6.68139 5.2006 -10.3615 -2.17789 0.458356
1886 3 23.283 5.08021 7.33499 -8.03583 4.21875 2.03121
1949 3 24.8025 6.98117 6.96601 -0.231095 -0.344657 0.173808
1890 1 26.7018 5.22898 6.81519 -0.108469 3.05397 -0.774631
1051 2 25.1653 8.62594 5.06489 6.64275 0.163003 -7.79612
1948 2 23.146 6.97672 8.68279 4.1626 2.66807 -3.44552
1922 2 1.32235 8.91046 6.74262 -3.54245 6.85169 1.34107
1927 1 2.99746 8.90055 8.47852 -10.4035 2.28042 2.28646
1027 2 3.05852 8.78692 5.00844 6.64329 -1.96636 -0.727181
1084 1 1.35729 10.6796 5.08501 -3.23317 -3.23339 -2.19553
1087 2 3.38333 12.5223 4.7803 -3.73206 -2.86202 -4.88302
1982 1 1.32228 12.7053 6.66817 -0.590087 3.60811 -1.33982
1985 2 3.28739 10.6524 6.49971 2.36521 -1.33537 10.1756
1984 1 1.32817 10.6805 8.42574 -0.261325 -3.46378 -2.60474
1987 3 3.17459 12.3054 8.29346 -1.29112 4.47031 -1.27035
1931 3 6.83748 8.89967 8.60496 4.73673 2.95261 3.77411
1930 1 8.58336 8.87484 6.95664 1.42034 -9.06099 -7.90594
1088 1 5.00611 10.1962 4.90341 -1.7589 2.50073 2.39043
1091 2 6.81477 12.3945 5.18297 4.92982 0.0250286 1.54481
1986 1 5.02207 12.2475 6.52334 -0.431202 0.701155 0.28333
1989 2 6.83371 10.5117 6.75894 -1.77533 -1.25813 3.73009
1988 1 4.97468 10.5566 8.41032 -2.80409 0.538966 2.03442
1991 3 6.72271 12.645 8.34976 -1.14521 4.36012 4.70512
1092 1 8.49075 10.6244 5.11376 -3.90167 -2.1335 0.654007
1992 1 8.62236 10.95 8.34081 5.2367 -1.19069 -0.469323
1935 1 10.4086 8.95094 8.63055 -5.88303 -0.813916 -0.124578
1934 1 12.4148 8.91847 6.74324 2.31554 -3.9908 0.455458
1990 3 8.88397 12.8025 6.78185 -2.24253 -3.133 -3.7571
1035 2 10.514 8.79371 4.97427 0.343743 -7.32045 -0.564357
1095 3 10.4637 12.362 4.92706 0.305158 3.52527 5.21772
1096 1 12.2682 10.5117 4.61763 3.59945 -1.80312 -2.66238
1993 2 10.4489 10.6593 6.53903 -0.358936 12.0334 -1.69729
1994 3 12.3997 12.2295 6.57816 -0.996715 -2.8609 -4.00959
1995 2 10.619 12.4369 8.65598 -6.49701 -2.05289 4.42924
1996 3 12.3019 10.4824 8.51045 1.61217 0.0552676 -5.14301
1039 2 13.8432 8.73453 4.82873 -4.2605 -0.868146 5.26535
1043 1 17.5563 8.84969 4.728 -0.742141 -3.14901 -2.58796
1938 3 15.6983 8.81136 6.65441 6.23806 -6.70681 -4.54011
1099 3 14.2054 12.5242 4.53761 -0.826792 0.464304 3.43649
1100 3 15.6496 10.6293 4.97362 11.1187 1.36697 0.784228
1997 2 14.0616 10.7134 6.7057 6.55801 1.02303 -0.533527
1998 3 15.8022 12.4576 6.50743 2.57418 -7.37544 -0.0876577
2000 3 15.9924 10.5525 8.21373 -3.44452 -0.262909 -3.32654
1999 3 14.3276 12.6717 8.48456 -1.7481 3.43896 5.70044
1939 3 14.0273 8.92827 8.42141 3.4621 -4.70126 2.41282
2003 1 17.6503 12.3112 8.45856 -3.51844 -0.647075 -0.194295
1103 3 17.7567 12.5749 4.82926 -1.91729 -3.54832 -0.105613
1943 3 17.8621 9.23755 8.38715 -4.05122 -0.654592 -5.38507
1942 3 19.7155 9.00551 6.43985 -2.93575 4.35546 4.72627
2001 1 17.7589 10.7059 6.46252 0.802855 3.18041 -1.01086
1047 2 21.6094 8.91588 4.9773 7.91824 -1.77475 -3.46893
1104 2 19.4993 10.7562 4.78345 -2.97006 -1.55765 0.148497
1107 1 21.3755 12.3749 4.93677 3.26889 -2.01919 -2.53188
2002 3 19.499 12.4038 6.56406 -3.52284 -4.10709 6.58515
2005 1 21.7224 10.54 6.88869 3.16152 0.0343918 1.61381
2004 2 19.5298 10.9328 8.56829 -4.72141 -3.88945 2.69794
1947 3 20.9642 9.00242 8.53294 7.08538 1.11891 -0.852843
2007 2 21.2164 12.3965 8.38877 -1.02688 -10.5859 -3.08265
1946 2 23.3136 8.72878 6.8143 7.95407 -2.07039 7.5482
1108 1 23.2335 10.5371 4.88787 3.26126 5.27763 -0.0922165
1111 2 24.7323 12.5426 4.99251 8.3714 7.14496 -0.485387
2006 1 23.1415 12.5327 6.98264 4.92409 -2.48645 -1.48463
2009 2 24.815 10.419 6.8546 -2.87992 -1.2128 0.142136
2011 1 24.7776 12.4043 8.56813 -0.932838 -7.00645 0.0195869
1112 1 26.5661 10.7485 4.86146 7.43601 7.44173 3.27804
2010 2 26.5578 12.3126 6.95757 5.32281 -0.564147 -2.94111
1951 1 25.222 8.76542 8.42778 -1.41595 -1.16566 -5.19757
1144 2 1.36475 14.1262 4.62609 -0.877102 0.361535 -1.06931
1147 2 3.09709 15.9237 4.99005 1.69315 0.972548 -1.67864
2042 3 1.27292 15.8034 6.84374 -5.76843 9.18284 1.94282
2045 3 3.38839 14.3998 6.48254 -5.35433 -2.27428 2.15886
2047 3 3.06463 15.888 8.61583 4.07884 3.74619 6.36081
1204 3 1.34118 17.6537 5.06168 -0.479181 -0.98698 5.36963
2044 3 1.36055 13.9953 8.66686 -2.95066 -0.362849 5.72095
2104 2 1.36187 17.5334 8.55786 3.55351 -2.68051 1.69225
1148 2 5.23193 14.0156 4.77919 -7.79752 7.93018 -0.418565
1151 1 7.12615 16.1347 5.0836 -2.17143 -0.604715 -4.27325
2046 3 5.12039 15.9162 6.80052 -4.54507 2.72271 2.09898
2049 3 6.82734 14.1845 6.63507 0.217082 5.42522 3.36582
2051 3 6.85399 15.8876 8.4995 -1.08734 -1.7397 4.56353
2048 3 4.89896 14.1934 8.59217 1.41055 2.28668 1.00133
2108 3 4.96048 17.6439 8.696 6.26784 -1.01049 3.3022
2052 3 8.60784 14.18 8.45463 -0.748098 -7.67065 -1.3977
2109 2 6.76039 17.7041 6.76563 4.45293 -4.06621 -7.6906
2050 3 8.99903 16.1193 6.72326 -0.261201 -7.33458 -0.580002
1152 2 8.72273 14.3748 4.96154 -5.31025 -4.50695 1.42796
1155 3 10.7477 16.046 4.80034 -0.425506 -2.93679 -1.90881
1156 2 12.4442 14.0883 4.87328 -0.799742 1.86412 3.13214
2053 3 10.8156 13.8881 6.64946 -2.47624 -1.83931 -3.22411
2054 1 12.3689 15.8675 6.63727 5.4503 -4.80805 -1.64713
2055 2 10.5168 15.6641 8.39458 -2.96356 -1.64283 -0.621347
2056 2 12.5488 14.1226 8.39887 4.39141 -5.37144 -4.43282
1212 2 8.83464 17.5581 4.83574 2.0783 -0.286447 7.27046
2113 3 10.5702 17.6939 6.71616 -0.745129 0.225054 2.95165
1159 3 14.0262 16.2546 4.84946 0.352589 -6.35916 1.60915
1160 1 15.8072 14.391 4.58151 -3.94079 6.94344 3.86109
2057 3 14.3478 14.1576 6.55059 -7.04062 2.55075 -7.22143
2058 3 16.0024 16.1356 6.76246 -5.72461 -2.55146 -5.77317
1163 1 17.6808 15.8047 4.85443 4.55148 -0.31096 -2.30782
2059 3 14.1121 16.1925 8.55078 0.292078 -0.177089 4.68318
1220 2 15.9734 17.6608 4.85081 3.15153 -10.9788 5.02357
2060 1 16.0764 14.424 8.71753 -16.9239 -4.71374 -2.56416
2061 2 17.8274 14.2694 6.67813 -4.6049 -1.09119 -5.89664
1164 2 19.3316 14.3442 5.08018 4.14154 3.81662 2.90516
1167 2 20.9692 15.9798 5.00921 6.18872 -5.52893 0.854355
2062 1 19.3374 16.3259 6.86396 0.728273 -1.7048 -1.51546
2065 2 21.1892 14.2953 6.59869 -3.69112 -0.0952838 -1.9339
2067 1 20.9647 15.9754 8.35889 3.54255 4.40218 2.22122
2064 1 19.3802 14.1509 8.48714 0.699235 0.96834 4.41562
2125 2 21.269 17.7376 6.67254 -4.00945 0.96903 -12.5277
1224 2 19.2043 17.5842 4.71788 -2.01682 -6.7465 -3.00399
1168 1 23.1924 14.2285 4.95847 -3.61691 0.802925 4.85242
1171 2 24.8807 16.2169 5.07169 -3.52333 -0.374119 2.38203
2066 3 23.0279 15.9383 6.75047 -3.13898 -1.38706 1.50765
2069 3 24.835 14.1371 6.95816 4.26045 -0.923208 0.919334
2071 3 24.7535 16.0902 8.59495 0.337409 6.60141 4.5239
2068 3 22.7343 14.2492 8.61436 2.26236 3.09737 -0.739052
1172 2 26.7395 14.2727 5.16735 -1.76842 -1.3542 8.39584
2072 2 26.7072 14.1381 8.51855 2.04973 -2.82494 3.11624
2128 1 22.9048 17.6312 8.6089 -1.17753 -4.67813 -3.79161
1228 1 22.6959 17.7291 4.88679 -4.42426 -1.05208 7.20077
2103 1 -0.199566 19.3461 8.46428 1.54443 -3.95168 1.07222
2105 3 3.18804 17.8541 6.98735 5.5708 0.162459 -4.642
1207 2 3.31051 19.3003 5.04769 6.1536 4.94669 -3.77921
1264 1 1.47229 20.9909 5.02073 -2.95092 4.60523 -3.78662
2102 2 1.509 19.7581 6.97327 -0.705768 4.02394 4.83271
2165 1 3.23615 21.2467 6.58319 3.01217 -0.377566 -5.80501
2164 1 1.21337 21.2587 8.62795 -0.638232 4.28488 -3.26416
1203 1 -0.28514 19.4876 5.35696 0.56929 -3.82282 -1.83393
1208 1 5.06704 17.9939 4.75417 0.488693 -2.01629 1.44881
1211 1 6.89679 19.4471 5.20843 5.28149 3.04861 0.705004
1268 1 5.02758 21.2034 4.80079 -2.64898 1.9429 2.50494
2106 3 5.10002 19.3744 6.69698 -7.48889 -4.6759 1.07683
2169 2 6.55566 21.4531 6.73798 -1.11819 1.41075 9.12863
2111 3 6.75242 19.5765 8.65066 5.73505 4.21868 -4.12523
2110 1 8.59163 19.6938 6.68265 -4.47049 -0.816351 2.64081
2112 1 8.70757 17.8598 8.44005 4.3496 -2.41899 -0.174431
2168 1 4.85006 21.4331 8.20063 -1.02484 -1.56829 -2.32728
2172 1 8.73454 21.4687 8.3709 3.26883 -2.63654 -0.181267
2116 1 12.2893 17.8712 8.59557 -3.43115 0.559601 -3.0632
1272 1 8.78353 21.4544 5.14292 -2.09906 3.74383 5.90068
1216 2 12.5715 18.0167 5.04582 3.56844 -5.05813 -2.63294
1215 3 10.5241 19.6677 5.0826 0.353687 -4.82625 -4.47384
1276 1 12.3835 21.3519 4.95846 5.75974 0.878485 1.3482
2114 2 12.5659 19.5581 6.77919 2.34806 5.49897 -4.03776
2173 2 10.8746 21.4739 6.79907 8.2364 14.1308 -10.6536
2176 3 12.2962 21.8527 8.48155 -3.56956 1.00071 -5.27315
2115 2 10.6606 19.8833 8.33847 5.24916 1.8296 0.461015
2117 3 14.1561 17.7803 6.6358 4.38632 -3.86373 2.75033
1219 3 14.2743 19.599 5.04348 -3.87733 0.870619 -3.04776
1280 3 15.9975 21.332 5.05451 -1.08149 9.00453 4.18595
2118 1 15.6578 20.0447 7.11957 -5.92595 -0.994284 -5.27709
2177 2 13.9859 21.4605 6.75677 -1.29262 -10.8568 2.41088
2121 3 17.3615 18.1182 6.82599 -1.52916 6.18221 0.219614
1223 1 17.4902 19.5123 4.94114 2.15339 -12.13 -3.57291
2120 3 15.7591 18.1173 8.65368 3.19717 1.20482 -3.38221
2123 2 17.5129 19.8325 8.57886 -3.7853 4.79714 -12.3241
2181 2 17.9104 21.3129 6.75923 -4.30531 2.48863 2.4174
1227 1 21.0817 19.5647 4.89015 1.21678 -3.31183 -5.88549
1284 2 19.4319 21.175 4.82503 -1.34205 2.68538 3.90684
2122 1 19.4816 19.4121 6.46967 0.105142 0.115316 -1.95488
2185 2 21.4472 21.4422 6.87195 3.46154 6.2288 4.43241
2127 3 21.2502 19.6762 8.59986 1.85152 -2.8498 -3.88559
2124 1 19.3032 18.1696 8.4821 -3.72631 -3.43825 6.03174
2184 3 19.4365 21.4686 8.69922 1.37925 -3.13576 -1.87493
2129 2 24.9355 18.1131 7.01252 -5.23163 -1.33986 -3.74806
2192 2 26.6126 21.7209 8.55951 4.37874 7.67065 0.749133
1231 3 24.9166 19.7206 5.24105 2.5282 3.78965 -2.22755
1288 1 23.0947 21.2093 5.09426 -8.4621 6.59197 -0.86416
2126 3 23.0138 19.4594 6.92925 -1.67436 1.81879 -6.0643
2189 3 24.7432 21.5865 6.90184 -2.91822 6.39649 -5.5072
1292 3 26.6649 21.5492 5.06623 0.91569 2.09178 4.30005
1232 3 26.7445 17.9803 4.87777 -1.32699 1.76602 -1.13428
2132 3 26.5413 17.8642 8.64426 -0.046473 0.129548 -2.72501
2188 2 22.9611 21.4523 8.70959 4.71776 2.05546 -2.21431
2227 2 3.3025 26.6199 8.50283 -6.92964 1.54589 -1.00425
1267 2 3.45587 23.0424 4.71211 -1.05067 -1.35022 -2.16472
1324 3 1.81294 24.7882 4.96995 1.7331 5.77833 0.728239
2162 3 1.46495 22.8009 6.69646 1.01919 4.60531 -2.16881
2225 1 3.22137 24.4356 7.075 4.47883 2.8995 -2.22484
2222 3 1.37479 26.6077 6.69647 2.52522 1.15375 -2.51941
2163 1 -0.299312 23.2377 8.44492 -5.61584 -6.73613 1.11918
1327 3 3.25267 26.7511 4.95799 3.50644 9.9884 1.85491
1263 3 -0.231422 23.2357 4.60216 -4.14676 9.35859 3.37829
2224 1 1.33959 24.8895 8.29012 -7.71231 6.68372 4.0212
2226 3 5.16478 26.7261 6.63969 3.11798 -5.00638 -3.33902