ITEM: TIMESTEP
162000
ITEM: NUMBER OF ATOMS
13500
ITEM: BOX BOUNDS pp pp pp
-2.9070332229056461e-01 5.3810703322270157e+01
-2.9070332229056461e-01 5.3810703322270157e+01
-2.9070332229056461e-01 5.3810703322270157e+01
ITEM: ATOMS id type x y z vx vy vz
7 1 3.16621 1.81054 0.901954 1.15916 2.06706 -0.0864646
64 1 1.61809 3.49211 1.0031 4.09844 -0.29212 -5.61624
902 2 1.6915 1.79778 2.72487 0.136641 4.37488 -2.55437
965 2 3.27729 3.46426 2.68827 7.04644 -4.15491 -8.79725
4 3 1.33219 -0.0573223 0.866102 2.02584 -0.19207 3.94445
905 3 3.20726 -0.206423 2.57432 -1.998 3.27183 -0.569831
3 1 -0.282829 1.69795 1.15639 -1.10435 -1.41582 4.85277
901 1 -0.170461 -0.0723677 2.86508 -8.62542 -5.78341 -2.31323
961 3 -0.163375 3.76381 2.79732 -3.86859 -0.958504 4.54698
11 3 6.79138 1.74333 0.917708 1.20725 -1.34556 -3.71873
68 1 5.05765 3.53391 1.12901 -4.12519 -7.62217 -2.23936
906 3 5.22089 1.42835 2.66181 -1.71945 1.08198 3.94346
969 3 6.63192 3.41293 2.73183 2.10842 6.07505 2.76879
909 2 6.89138 -0.205238 2.74369 8.66008 0.612872 0.645484
8 1 5.11393 -0.123438 0.915647 -1.32052 6.29342 5.01184
910 1 8.76035 1.55174 2.61329 8.48811 0.611568 2.96566
12 2 8.91992 -0.197329 0.966681 -10.0504 1.03567 0.381247
72 3 8.80649 3.40918 1.15613 2.02384 -6.57556 -6.5078
15 1 10.4948 1.68934 1.18084 0.622099 2.42994 -4.69615
76 3 12.1601 3.54135 0.961667 4.74407 -5.82238 -0.517441
914 3 12.3328 1.76327 2.67659 1.22986 3.62552 -4.58735
973 2 10.6702 3.75046 3.03611 2.00199 3.0925 -4.22519
16 2 12.0991 -0.0709886 1.1577 -3.78216 0.814401 -0.00519811
19 3 14.0766 1.65 1.15152 -1.01915 -1.19994 0.878584
80 3 15.7527 3.45824 1.34697 1.11007 -5.21179 0.0810481
918 3 15.8313 1.63738 3.13276 -3.92102 -0.984753 -1.06983
977 1 13.9181 3.54674 3.07219 3.94425 -2.10867 -6.00228
20 1 16.0766 -0.0961821 1.09958 5.81732 3.5393 1.24969
917 3 14.2511 -0.0155771 2.97646 3.81675 5.72296 2.55821
981 2 17.8853 3.50949 2.89753 1.4318 1.22176 3.58796
23 2 17.8814 1.73195 0.999552 -2.3134 -5.08579 -6.29498
27 2 21.5104 1.62561 1.08682 5.72768 4.03174 7.2545
84 3 19.5114 3.51001 1.0705 3.0553 -0.999722 -3.4123
922 1 19.601 1.76805 3.00459 -1.28727 -0.392086 -0.032651
985 1 21.2007 3.54837 2.87605 2.72139 -3.32764 -3.3183
925 3 21.424 -0.177304 3.03962 -2.7858 3.66866 -2.36306
24 2 19.552 -0.215283 1.25452 -2.69078 -5.21473 4.62811
31 1 25.0328 1.96091 0.784624 8.06876 9.01137 3.03492
88 3 23.3619 3.40734 0.950328 6.0852 -13.4631 0.214343
926 3 22.9586 1.78672 2.94641 -1.34857 -1.8946 -0.625746
989 1 25.0435 3.52476 2.66999 1.66481 3.65292 4.82781
929 2 25.0366 0.214053 2.70131 -2.02356 3.07435 3.04501
28 3 23.3135 -0.0868492 0.950455 -0.656997 -1.51528 2.21854
92 2 26.7154 3.70756 0.783098 4.54421 -2.05748 -3.33669
930 3 26.7172 2.02001 2.6257 3.32457 -0.192836 -0.548298
32 2 26.6587 0.132286 0.842622 -0.876907 0.915367 -1.87576
67 2 3.39912 5.26115 0.988896 -3.602 4.53566 11.5544
124 2 1.54185 7.21459 1.09332 0.319932 3.29504 -2.89157
962 1 1.57042 5.36636 2.60694 5.15037 -5.89216 -12.7457
1025 1 3.08955 7.14232 2.76724 -0.485357 -1.49227 0.555048
71 1 7.03934 5.22053 1.31045 0.878549 3.34268 2.40449
128 3 5.35573 6.88742 1.07426 -7.06012 -3.93536 1.2098
966 3 5.04565 5.26259 3.0052 -1.3029 -8.08197 1.94108
1029 2 7.15958 6.97046 2.8526 3.14337 -2.58526 0.0685153
132 1 8.50624 7.06538 1.18435 -0.439635 6.65293 -2.01636
970 3 8.84064 5.31265 2.86036 -7.70032 2.33711 0.788706
75 2 10.5581 5.35801 1.04339 2.26725 -5.72589 -0.198202
136 2 12.0567 7.05156 0.759231 -0.796869 7.11 0.481563
974 3 12.3881 5.21169 2.9929 -2.21489 -5.83262 -4.05148
1033 3 10.5607 7.06278 2.83994 4.79531 3.23183 -1.88807
1034 3 12.1961 8.58685 2.50575 1.71441 -6.60515 6.89313
79 3 14.2703 5.45195 1.3019 -0.198362 -3.445 -6.41771
140 3 15.9359 6.91425 0.80813 -5.15135 -3.45055 7.49516
978 3 15.949 5.34975 3.1457 1.96539 2.04742 0.253982
1037 1 13.7474 7.18732 2.93663 -6.51554 2.24124 0.533477
139 3 14.1147 8.55332 1.17087 6.79766 -4.17161 -2.01609
83 1 17.7811 5.08141 0.866112 1.70942 -1.33179 4.45684
1041 3 17.7793 6.9946 2.74395 0.613403 -0.713423 2.26648
87 1 21.6676 5.21215 0.807017 -0.241949 0.445154 0.847405
144 2 19.5378 7.07446 1.06309 2.2308 -13.8998 2.65139
982 3 19.6818 5.40582 2.81613 -2.64835 -1.87737 -9.30423
1045 2 21.4021 7.26475 2.34851 1.35034 6.07728 -5.37282
91 2 25.0351 5.36185 0.930621 3.84594 -3.71829 -2.60109
148 3 23.4628 7.3364 1.12715 2.77184 -1.62015 -4.04607
986 1 23.3189 5.59606 2.79715 -5.92139 -5.7746 4.03612
1049 2 25.2046 7.19587 2.91614 -2.51973 -4.68291 -6.35964
1022 2 1.53883 8.81523 2.83364 -0.822792 -0.972955 2.90258
127 1 3.43811 8.76444 1.38239 -2.22326 -9.47369 -6.41745
184 1 1.67521 10.4925 1.14078 -6.22471 -1.88611 -6.78118
187 2 3.34857 12.3749 1.18896 -1.09048 0.87813 4.60705
1082 3 1.64309 12.4762 2.76343 4.73139 -1.47304 3.83846
1085 1 3.64333 10.7136 2.83664 1.83717 5.37115 4.19224
183 3 -0.0647252 12.9066 0.986167 -0.89056 -5.90615 -0.286873
1081 2 0.0102084 10.7468 2.9611 5.51062 4.20488 2.35897
123 1 -0.272889 8.90423 0.827751 3.57424 -2.53522 4.51509
131 3 6.80663 8.85702 1.11152 0.505023 1.14857 0.717303
1026 2 5.35004 8.91212 3.1314 1.52987 -6.19805 -10.3938
188 1 5.11856 10.4062 0.855911 -5.29091 -3.33173 -2.00428
191 2 6.96456 12.346 0.938253 -3.09816 -1.82173 2.77415
1086 1 5.13296 12.4815 2.78886 3.24763 -1.34462 -0.703606
1089 1 6.71136 10.4723 2.83056 0.910671 0.211243 0.224944
192 2 8.40037 10.5259 0.770183 0.63566 3.92895 -0.198485
1030 1 8.67949 8.87325 2.78742 -6.51846 1.19648 -0.708703
135 3 10.4637 8.7762 0.926008 4.4132 6.4247 2.82632
1090 3 8.88396 12.4322 2.78119 2.91423 -5.9009 2.48101
195 2 10.5064 12.3975 0.844355 3.19982 -4.93107 -6.68952
196 2 12.099 10.383 0.99066 -1.79944 2.83135 3.07389
1093 3 10.4122 10.6364 2.89714 -3.90654 -0.447764 -0.890504
1094 1 12.2391 12.3539 2.92084 1.30714 -0.599672 -2.89336
1038 2 16.2135 8.73554 2.90062 -0.655305 1.41734 6.21533
199 2 13.9257 12.6429 1.37036 6.10532 -3.87378 5.97318
200 3 15.6717 10.9774 0.845386 -9.28866 1.81514 -4.42991
1097 1 13.8503 10.4485 2.75176 7.10322 1.94745 -2.01496
1098 2 15.9026 12.595 2.80229 -4.80673 -0.28714 -2.65416
1101 2 17.6348 10.6206 2.83139 -3.55343 4.27148 -2.13646
143 1 17.6171 8.89756 1.00173 -6.39173 4.52327 -1.9548
203 2 17.7943 12.4709 0.766984 -1.76192 2.0311 3.98648
1042 3 19.4213 8.94389 2.61935 -4.9843 -4.52154 0.790808
147 3 21.3371 9.1446 1.19335 2.99113 0.299293 3.63759
204 2 19.4063 10.7359 0.823401 -3.5192 1.62066 -2.03897
207 1 21.1539 12.3733 1.11479 1.5493 -1.24491 -0.639359
1102 1 19.5648 12.7596 2.73213 7.40833 1.87409 -0.421826
1105 3 21.0994 10.6866 2.74081 1.70672 4.15193 -6.62455
151 1 24.992 9.25049 0.728184 10.9653 5.19615 4.69131
1046 2 23.265 8.96722 2.88056 0.621615 0.822521 -4.15101
208 3 23.2597 10.8872 1.38762 0.0543898 5.66218 8.77365
211 3 25.1203 12.6359 1.00735 -0.802623 5.18732 -5.91258
1106 2 23.1314 12.6419 2.73976 0.880278 -5.84092 -5.04819
1109 3 25.1067 10.7558 2.9243 -6.20703 -1.6598 -4.74765
1110 3 26.5846 12.8935 3.19769 -2.41314 -2.48833 -3.39237
244 1 1.71262 14.5053 0.770523 -2.30082 -0.118755 -0.499563
247 1 3.37884 16.2012 1.4048 -0.140823 -0.475671 1.23764
1142 2 1.44567 16.2655 2.81233 -2.6686 4.00611 -0.580858
1145 1 3.3159 14.4333 2.92688 -5.10282 -0.0327853 2.97592
1141 3 -0.145112 14.4586 2.86982 4.77096 -2.07274 -4.18494
243 1 -0.248342 16.2334 1.19598 4.0329 -2.66828 -1.94166
248 1 5.0671 14.3707 0.849806 1.45656 -2.18386 5.30373
251 1 6.86244 16.1016 1.20909 -5.11668 6.46075 2.22037
1146 2 5.19783 16.0986 2.89503 6.16903 -0.411686 -0.957706
1149 2 7.05913 14.1587 2.78232 -5.43556 3.72066 1.32532
252 1 8.65183 14.3034 0.98914 1.15709 0.556014 1.13768
1150 1 8.68638 16.123 2.81952 -0.720933 -8.10562 -0.22727
255 2 10.8064 16.1774 0.916594 -6.79712 0.942769 4.97057
256 2 12.3023 14.4196 1.26484 1.89894 1.40956 4.19354
1153 2 10.1833 14.5273 2.83895 -2.07412 -4.3605 -1.88989
1154 3 12.347 16.4093 2.82403 1.04377 -1.05741 1.73343
259 2 14.0621 16.1226 1.24471 0.0876012 -2.04392 5.12032
260 1 15.9572 14.5375 1.01393 2.30164 1.37777 -0.915513
1157 1 14.004 14.5391 2.80781 2.08212 -3.58573 -0.893615
1158 2 15.9304 16.0113 3.09971 0.373663 -3.5157 0.457333
1221 1 17.7026 17.6677 3.11769 -3.56824 -9.84607 0.106019
1161 1 17.8327 14.1768 2.88593 -0.301828 0.885114 4.93234
263 3 17.8045 16.094 1.04336 -0.941751 -0.592374 3.24882
264 2 19.6235 14.37 0.954974 4.57495 -0.522604 2.07705
267 2 21.2773 16.3664 1.15746 1.49667 -4.20252 -2.55674
1162 2 19.2577 15.9184 3.16679 -1.32374 -7.40645 3.65217
1165 1 21.2229 14.4215 3.14162 1.17821 -3.15986 1.44072
1225 1 21.1944 17.6918 2.81049 -0.852935 6.16285 10.5326
268 3 22.8964 14.1782 0.846827 -2.94058 3.89236 6.43232
271 1 25.0658 16.1911 1.44687 -2.8173 -1.60439 -1.90074
1166 2 23.0128 15.8028 3.11817 0.641842 -3.31157 -1.80193
1169 1 24.7306 14.3291 2.87009 3.78746 -1.23128 0.770254
328 2 23.0741 17.7057 1.44254 0.576 0.0614398 -2.25455
272 3 26.6838 14.4451 1.10865 -2.13359 -4.47466 -1.43181
1205 1 3.46831 17.9828 2.99536 -4.17892 2.6722 3.61647
304 2 1.68569 18.1322 0.99032 -3.3046 8.07862 8.00161
307 2 3.56009 19.9197 1.21894 -2.18044 -1.73506 0.0432615
364 1 1.71503 21.3342 1.08254 -3.68304 -0.914387 6.04117
1202 1 1.53775 19.6465 2.75589 1.81109 -2.54008 1.85104
1265 1 3.31364 21.4733 3.00119 0.528053 -0.310265 -4.00038
1261 2 -0.256478 21.5533 2.98662 0.481266 -0.486215 4.7676
303 1 -0.241175 19.4882 1.1092 -0.00669765 -0.921979 -1.71152
1201 2 -0.175456 18.1037 2.90959 -0.0917124 -3.0239 -2.38728
308 1 5.30287 17.9163 1.22144 -1.14548 2.29438 0.203258
1209 2 7.0852 17.7498 2.79992 -1.60768 -0.81273 0.0121666
311 1 7.2191 19.9915 1.37158 6.68301 -0.268354 4.52266
368 3 5.18156 21.9142 1.00486 2.5643 2.58717 -1.28677
1206 3 5.4112 20.0313 2.54972 3.47099 0.912305 -2.09111
1269 3 6.95071 22.0014 2.93226 3.40587 -3.45497 5.98325
372 2 8.64599 21.7155 1.17408 9.13577 0.814832 -6.69364
312 3 8.75684 17.9921 0.934799 -2.50365 -5.32331 -0.972846
1210 3 8.79783 19.9065 2.84605 -3.14612 -2.7639 -4.51676
1213 1 10.6213 18.0067 2.81323 3.53035 -5.28464 2.93178
316 2 12.5627 18.119 1.09748 2.29974 -5.73293 -5.40528
315 3 10.6772 19.9519 1.30239 -2.35341 1.10558 -4.47641
376 2 12.5225 21.6454 1.23584 2.65174 0.125539 -4.91734
1214 1 12.3175 19.9806 2.97282 -10.1095 -2.01549 0.816023
1273 3 10.5661 21.5737 2.92673 1.29569 -3.16628 0.721282
320 3 15.9433 18.0868 1.22687 -3.04967 4.85856 -1.14018
1217 3 14.1357 18.2711 3.01958 -1.2391 -0.56016 -3.90491
319 1 14.3944 20.0943 1.20557 -3.31816 -2.47066 0.482003
380 3 16.1545 21.7073 1.45414 3.34222 -1.05301 -4.16746
1218 2 16.0483 19.6626 2.94445 9.77105 1.37231 8.12083
1277 1 14.1968 21.4616 3.03221 -6.72969 1.30416 3.64598
323 3 17.8934 19.621 1.00166 -0.861321 -3.82354 -2.60857
1281 3 17.8662 21.3429 2.90419 -5.82368 2.55055 2.77656
324 3 19.5075 17.824 0.974975 -0.950317 -4.95456 -1.4025
327 3 21.4192 19.5748 1.05914 0.617798 -5.50366 1.97012
384 3 19.2987 21.6627 0.935746 0.153037 4.07424 1.60069
1222 3 19.4163 19.5729 2.88392 3.30649 2.05821 -1.33983
1285 1 21.4464 21.5733 3.02544 -2.33702 -3.09994 2.54711
1227 3 21.2639 19.5777 4.15417 -9.07179 -1.11353 3.68073
332 2 26.7476 18.1323 1.4119 2.24782 -5.29071 -1.30081
1229 1 25.0732 17.9583 2.99883 0.392232 1.52581 -0.307064
331 2 24.9728 19.6926 1.08317 9.43405 -5.58003 1.13444
388 1 22.9715 21.5567 1.25451 2.33675 -3.91538 -1.13118
1226 2 23.3561 20.0275 2.75318 4.2951 -2.91778 1.77425
1289 3 25.0331 21.6047 2.92771 5.75158 0.228536 -0.5794
1230 2 26.4619 19.79 2.99957 -5.23873 2.2371 3.2635
389 1 25.058 21.565 -0.178857 -3.49825 6.21298 1.13524
392 2 26.7215 21.4312 1.2283 -0.302841 1.06386 -3.88846
367 2 3.39298 23.1902 1.32418 4.05822 -1.25948 0.108697
424 3 1.45973 24.8452 1.29688 1.3021 5.31118 -5.64074
1262 2 1.46827 23.1316 2.97831 -4.86695 2.94545 -3.86724
1325 1 3.38058 25.2502 3.15663 2.12883 -2.12094 1.55449
363 3 -0.159253 23.2649 1.19616 0.257825 4.13437 4.88846
1321 3 -0.141978 24.9903 3.04158 1.04118 0.868423 4.55524
371 2 6.89278 23.3067 0.893714 -2.40814 -2.04797 2.74005
428 3 5.17772 25.1909 0.922277 -5.06817 -0.163716 2.87728
1266 3 5.29349 23.5677 3.01519 1.4569 -2.19402 -4.43666
1329 2 6.95941 25.2013 2.84195 2.32443 -1.55115 -4.12427
432 3 8.71314 25.2579 1.3107 3.11347 5.95638 0.937412
1270 1 8.6934 23.468 2.98901 2.81023 4.46021 -5.9587
1326 2 4.97288 26.7341 3.10699 2.51047 2.55142 -0.0615862
375 1 10.554 23.3427 1.35117 0.503752 0.11513 -4.70843
436 2 12.3064 25.1152 1.13089 1.70925 5.69048 -4.01589
1274 3 12.5404 23.2634 2.89177 3.82989 -0.407373 6.82429
1333 2 10.4823 25.037 2.96798 0.801742 -4.89783 2.33939
1334 2 12.2738 26.7613 2.9978 3.08281 7.20763 4.87761
379 2 13.9132 23.0171 0.99027 2.05806 -0.273826 -4.30648
440 3 15.8304 25.0298 1.04317 0.0265952 3.38782 4.66993
1278 3 16.0023 23.3126 3.16563 -3.97443 5.53343 2.45004
1337 3 14.2691 25.1272 2.92526 3.97436 -3.01728 -2.961
383 2 17.7287 23.4946 1.05024 0.764821 4.97209 -1.59721
1341 1 17.7418 25.0004 2.86478 -1.81064 -6.88484 2.03857
387 2 21.1511 23.4806 1.02036 9.52223 -4.71644 -1.12868
444 1 19.3801 25.0745 1.27148 1.01307 -0.850702 -1.13389
1282 1 19.7321 23.5314 3.14418 -5.79654 -3.89877 -6.82349
1345 3 21.4659 25.6057 2.71696 0.640268 0.613047 1.3569
447 2 20.8891 26.701 0.833227 -1.82367 -0.984539 -2.91852
391 2 25.2912 23.6559 1.16677 -1.34698 8.27702 1.07952
448 3 23.1647 25.2179 1.03115 -2.70941 -2.80649 -1.71536
1286 3 23.0117 23.5322 3.06375 -1.53101 5.17199 -1.13337
1349 1 24.9658 25.0509 2.88311 5.11181 -0.317336 -3.42055
907 1 3.11327 1.81732 4.23936 -4.51491 3.5876 -5.595
964 1 1.42394 3.47356 4.59179 -4.26115 0.282574 1.58847
1802 2 1.74444 1.68559 6.40781 -3.39083 -0.540463 -1.41572
1865 1 3.29936 3.89785 6.17808 6.07064 -5.05042 -8.06288
1807 2 3.18383 1.86681 8.07615 5.47559 0.639127 5.61895
1864 2 1.45228 3.42745 8.07759 2.13589 7.90206 -1.84662
1861 1 -0.252428 3.51212 6.42649 -8.15073 7.84684 -0.629483
904 1 1.52356 -0.14679 4.7185 7.07161 1.74886 -9.4226
1805 1 3.23989 0.0841619 6.34666 -1.33093 6.84248 5.53888
1804 1 1.54129 0.251326 8.17172 -0.0380212 0.679749 -2.73131
903 3 -0.0267603 1.61826 4.75664 5.62521 2.3949 2.9386
1803 2 -0.203752 1.70736 8.13446 0.594175 4.04949 -1.14533
968 3 5.19036 3.476 4.53319 6.23056 -1.51155 2.17254
911 2 6.9241 1.74182 4.6543 2.98323 1.06974 -1.74095
1806 2 5.05994 1.76933 6.31308 -1.23394 -1.48166 -2.54843
1869 3 6.85106 3.9098 6.40836 6.93366 -1.56624 -3.66967
1868 1 4.93445 3.64665 8.24699 5.3362 -4.36465 -1.54211
1811 1 6.57505 1.76402 8.091 3.99348 1.6203 -5.93824
912 3 8.6929 0.041489 4.61224 3.54085 0.876957 -1.93857
1809 3 7.03312 0.265531 6.32006 0.755825 -1.29377 3.31683
1810 2 8.65822 1.87 6.38865 -2.89914 -2.63759 0.94913
1812 2 8.44037 0.313352 8.40248 2.93471 -5.51897 3.66472
1808 1 5.16958 0.0917814 7.96807 1.8436 0.105579 0.449624
1872 1 8.63601 3.67326 8.46953 -3.71902 4.73539 -1.68142
908 3 4.94087 0.0368965 4.43173 -0.178948 -1.34514 -4.37155
972 3 8.91119 3.5234 4.59705 0.694176 6.16802 -4.29228
915 3 10.434 1.52886 4.3053 -0.338449 0.52916 0.227374
976 2 12.3749 3.38704 4.91723 9.53511 5.30429 -1.10803
1814 2 12.1538 1.56995 6.0708 -4.85052 -2.72987 -6.77826
1873 3 10.5232 3.16971 6.40987 0.259168 1.14331 3.09054
1876 2 12.395 3.15668 8.21893 -8.96571 -1.1998 -4.59018
1815 1 10.3485 1.4882 8.21363 2.61367 3.21874 -1.68602
1816 2 12.4928 -0.0220215 8.33016 -1.30124 5.56794 -1.54251
1813 1 10.627 -0.0753312 6.48047 -0.902731 -1.2619 -5.17141
919 3 14.291 1.85973 4.86167 -2.37282 1.57463 -0.1103
980 3 15.9663 3.50243 4.66902 -3.49745 -3.36126 0.385692
1818 2 15.9114 1.61086 6.33019 -3.12778 3.19726 2.38433
1877 1 13.9481 3.63539 6.5343 2.70103 -6.68428 0.0367365
1880 1 15.7579 3.32577 8.23674 5.20003 4.14994 4.43527
1817 1 14.0757 -0.0907177 6.41874 1.18544 0.748086 5.12654
1819 2 14.2835 1.63499 8.27921 8.11785 2.63367 -7.08864
1820 3 15.9314 0.0460963 8.41585 -1.70033 -3.30378 4.11396
1821 3 17.6322 0.0101813 6.56237 7.52667 -4.27424 -1.28634
1881 1 17.7515 3.51808 6.46145 5.0368 13.7891 2.53677
1823 3 17.6911 1.61229 8.32667 2.01949 4.90068 3.3177
920 3 16.0126 -0.106558 4.8139 2.64164 5.42856 2.89421
923 1 17.7807 1.77444 4.83218 -3.50842 1.57961 -2.90225
927 2 21.1335 1.55835 4.80999 1.76206 -7.01195 -2.31994
984 3 19.4009 3.62961 4.81079 -6.02938 -0.117191 5.63767
1822 2 19.4293 1.56959 6.56679 -5.51823 7.29401 -8.56774
1885 1 20.9689 3.51098 6.57731 3.29228 1.86755 4.22412
1827 1 21.3844 1.59774 8.38805 -2.87227 0.244663 -2.29058
1825 1 21.1997 -0.140064 6.49112 -2.19365 -1.91673 0.529173
1884 1 19.4324 3.44809 8.47017 3.2087 1.29089 -1.96596
1824 1 19.4373 -0.14096 8.20037 -7.33014 1.40161 -4.56031
924 3 19.3606 -0.148963 4.63196 1.73014 -0.401516 -2.58792
931 1 24.7158 1.68417 4.58155 3.38607 0.6652 -3.71492
1826 2 23.0166 1.73459 6.53189 -2.11439 3.1607 -7.23442
1889 1 24.6646 4.0109 6.45008 3.47716 -3.07031 0.820176
988 3 22.9988 3.55747 4.51758 -1.26351 6.19262 -0.428024
1831 3 25.0631 1.67231 8.12714 -6.63202 -2.8756 -2.91398
1829 2 25.4395 0.0249858 6.6178 0.190732 -3.71746 -3.45362
1888 2 23.1256 3.3869 8.28282 -3.5364 5.90788 -2.13448
992 2 26.7078 3.75878 4.23929 -0.379625 3.23098 -2.7792
1828 1 23.1696 0.0344645 8.32143 2.36013 -2.70566 -0.309194
932 2 26.6366 0.398327 4.59874 1.79367 4.51258 -0.842396
1830 1 26.6259 2.32557 6.09536 0.948616 -1.87878 -0.636507
928 3 23.2494 -0.0196665 4.71243 -2.36496 7.85833 -2.18847
1892 2 26.7554 3.42115 8.18477 -0.73136 -1.85242 6.04035
963 1 -0.173409 5.37116 4.77617 -0.547417 3.70681 3.084
967 2 3.0463 5.669 4.53083 -3.59789 5.2884 -0.784372
1024 1 1.47794 7.26806 4.72123 -8.86766 -0.282594 2.79352
1862 2 1.49033 5.37027 6.40254 6.54434 -7.50414 3.84716
1925 1 3.1324 7.18056 6.51709 -0.86822 8.9109 -2.51682
1867 1 2.82236 5.38959 8.11795 -1.03394 -5.53811 -3.87661
1924 2 1.38685 7.43469 8.39157 -0.555884 -1.88128 -0.860241
1921 2 -0.251446 7.23845 6.60755 -14.1499 2.52029 0.961809
971 3 6.97482 5.28823 4.50825 1.06422 -2.32994 2.55677
1028 1 5.08336 7.32027 4.71141 9.52347 -0.986198 -2.02269
1866 2 4.9236 5.55681 6.62014 1.12265 -0.146371 -3.52747
1929 1 6.81615 7.31707 6.61279 -0.743648 -4.88317 -5.9679
1928 2 5.01944 6.88394 8.19066 7.25504 -0.180681 0.332628
1871 3 6.64964 5.4175 8.06447 1.24577 -2.62276 -4.66713
1870 2 8.5335 5.41164 6.53645 0.238846 -3.24561 -0.306703
1932 2 8.68192 7.44815 8.41776 -8.03588 3.16377 -0.0973025
1930 2 8.76687 8.67727 6.73501 3.54209 2.52085 -1.33197
1032 2 8.80173 7.10633 4.77322 -3.71321 -9.12225 -5.32019
1036 2 12.4248 6.95707 4.73614 0.353685 -0.287891 0.904945
975 1 10.5024 5.24813 4.99025 -0.0350195 7.79058 3.26526
1874 3 12.398 5.42307 6.7346 -5.95248 -6.97497 1.44416
1933 3 10.6776 6.99154 6.66712 0.75309 3.6044 2.25295
1875 3 10.6727 4.96262 8.19085 8.54448 -4.12215 -0.742601
1936 2 12.4034 7.40256 8.36337 -3.53553 1.46883 4.92491
979 2 14.0998 5.34779 4.87799 -0.155837 2.13457 -3.13002
1040 3 15.9556 7.13044 4.60948 -4.09844 -6.05796 0.781954
1878 1 15.9635 5.13787 6.53989 -6.78393 -1.90227 7.2569
1937 3 14.2079 7.30618 6.32957 -7.78097 -1.66999 1.54953
1940 1 15.8584 7.07761 8.19367 1.84417 1.52742 2.4333
1879 2 14.3519 5.27993 8.25745 4.57136 4.99759 -7.65527
983 2 17.5188 5.21876 4.79684 -0.693989 -2.19119 -0.81449
1941 3 17.8462 7.09603 6.57551 4.64891 1.12131 -2.80718
1883 3 17.7477 5.40605 8.28439 -5.02816 4.56092 -2.65754
1044 3 19.4353 7.34116 4.38752 -1.06084 5.11814 -4.46171
987 3 21.513 5.3588 4.433 -1.66078 1.0946 -1.97526
1882 3 19.693 5.61568 6.22908 -5.31217 -0.94416 2.79707
1945 1 21.3582 7.41189 6.69731 -5.35244 -0.898422 -3.01003
1887 2 21.3893 5.19056 8.07625 0.596114 3.90613 6.9675
1944 1 19.8294 7.23699 8.35154 5.73317 -1.8751 2.38716
1052 2 26.695 7.00616 4.82454 5.46739 -3.80698 0.663606
1048 1 23.1983 7.18252 4.47582 10.0581 2.86552 -2.37747
991 2 24.8272 5.14593 4.54274 -8.42493 -0.0174392 -1.27943
1886 2 22.9111 5.41669 6.42774 -5.39655 -3.49296 0.987332
1949 1 24.9646 7.26057 6.47479 -3.85337 2.2485 -4.88832
1891 3 25.2838 5.29718 8.32365 2.4484 0.450132 -5.72087
1948 2 23.4346 7.15442 8.07468 -0.133724 4.31315 -3.354
1027 2 3.24549 8.95688 4.66934 0.975642 0.106459 0.259705
1927 2 3.24829 8.99057 8.23516 -4.38714 -4.61386 -5.55648
1922 3 1.64725 9.04123 6.67015 3.29669 -4.05515 -2.6026
1087 1 3.55636 12.6118 4.76838 2.70279 -1.23476 -2.95768
1084 2 1.49807 10.8354 4.9788 2.26129 -5.38305 4.59328
1982 1 1.66614 12.6471 6.38334 3.2462 5.38269 2.98329
1985 1 3.1993 10.9205 6.41081 -2.92875 5.95696 7.86413
1987 2 3.41995 12.5911 8.43589 -0.498409 -12.5739 -6.25894
1984 3 1.37152 11.1603 8.32057 1.38428 -5.3915 -4.48149
1023 1 -0.221196 8.8459 4.71677 2.07956 -1.04629 -1.29208
1981 2 -0.206432 10.6714 6.096 8.68831 1.00761 7.49002
1926 2 5.03033 9.0781 6.51512 1.66156 1.41945 6.92102
1931 1 6.77431 9.02615 8.20267 3.46695 10.9379 3.94405
1031 3 7.0872 8.9223 4.58517 0.239089 0.385779 9.2141
1091 3 7.05699 12.6297 4.57876 0.750841 -4.46868 6.47227
1088 2 5.30573 10.5565 4.55031 0.992415 -6.46588 2.87216
1986 2 5.12128 12.6583 6.55195 2.00018 3.88237 6.74532
1989 1 6.90506 10.7689 6.14334 -1.85794 -8.26939 7.91403
1991 3 6.92877 12.4978 8.41271 -4.64064 -3.17237 -11.3299
1988 1 5.03184 10.7355 8.40791 -6.01055 -3.10098 -1.73338
1992 2 8.70076 10.47 8.13675 -2.92775 0.485641 6.51374
1934 3 12.3223 9.05287 6.29461 2.45458 -0.744587 -2.02945
1092 3 8.82874 10.528 4.54619 1.81419 -3.86412 -2.40592
1990 2 8.92816 12.2172 6.46664 2.15014 -6.91196 4.3253
1035 2 10.8277 8.75462 4.53118 2.065 -7.34468 1.66026
1935 1 10.8508 9.01966 8.49291 1.5604 -1.55479 3.98441
1095 1 10.7206 12.7821 4.55115 -0.887343 0.649652 4.49847
1096 2 12.19 10.8058 4.56457 5.74507 -5.32457 1.2978
1993 1 10.4667 10.6931 6.47817 -3.71127 3.00112 -4.54051
1994 1 12.1932 12.7861 6.49578 5.30478 -2.58898 -1.92208
1996 2 12.1434 10.9814 8.27463 -9.25551 -0.253802 -8.54931
1995 3 10.3399 12.5716 8.15273 0.338338 2.52541 -2.16916
1939 3 14.2484 8.79807 8.22405 5.17106 8.01103 -2.8639
1938 2 15.8954 8.96383 6.31609 5.64701 -4.77588 -0.850194
1039 3 13.9796 8.91753 4.63583 0.535505 1.86265 -5.10302
1100 1 15.8999 10.8704 4.38643 -5.11042 2.55647 -2.7728
1099 2 13.689 12.662 4.83358 7.55929 4.59954 2.07447
1997 3 14.0563 10.6392 6.37542 5.53629 3.71246 1.91926
1998 2 15.7727 12.312 6.18006 -6.38375 -0.896131 -2.3449
2000 3 15.7332 10.7253 8.25344 -1.07147 -10.7091 1.94389
1999 2 14.0912 12.6337 7.8793 3.1879 2.9226 -0.226064
2003 2 17.6043 12.3849 8.21764 3.24141 -3.63132 -1.33847
2001 1 17.7176 10.7369 6.35656 -3.0636 -4.58526 -3.13788
1103 2 17.8459 12.4004 4.88474 6.08179 -2.82346 -4.04989
1943 3 17.8331 8.8184 8.12853 1.6168 -1.98634 -1.95934
1947 2 21.3591 9.32985 8.43856 -0.799409 -7.61717 0.302693
1047 3 21.4934 8.98457 4.51578 -2.02325 -1.25159 -2.29922
1043 1 17.8362 9.18344 4.59232 -0.299343 -5.56524 5.30235
1942 2 19.5426 9.16672 6.26303 4.70166 0.643099 -7.02016
1104 2 19.6024 10.8386 4.65789 4.0431 5.26068 -6.53507
1107 1 21.4066 12.5673 4.564 0.0724054 -2.27227 2.04317
2002 1 19.6221 12.4413 6.42429 -8.11651 0.614771 -6.60828
2005 1 21.5791 10.7214 6.51485 3.09867 -2.69943 10.6402
2007 3 21.4237 12.6543 8.38492 -2.14906 -3.95587 -4.88994
2004 1 19.4225 10.8168 8.39214 6.35766 -0.976353 3.07622
1051 1 25.1116 9.11118 4.55642 8.18553 0.269757 2.21368
1111 1 24.9006 12.3188 4.88511 7.18101 5.65914 4.85118
1946 2 23.2851 8.90165 6.14613 1.67123 1.48119 -8.75901
1951 2 24.7878 9.19861 8.23032 -6.27843 3.40071 -1.88266
1108 3 23.1511 10.8853 4.60855 -1.37452 -4.04128 -4.90057
2006 3 23.0478 12.5517 6.49595 -5.13261 -3.17678 -8.52515
2009 2 24.7833 10.8733 6.47826 -2.13463 0.492983 -0.930652
2011 2 25.1527 12.669 8.36573 -9.27302 -2.03172 -4.19792
2008 1 23.2516 11.0806 8.50869 8.15396 -6.04689 -0.653421
1950 1 26.7015 9.09227 6.56862 2.27378 -4.04783 -3.60535
1144 2 1.56452 14.1391 4.66065 1.89703 -4.49788 3.57
1147 2 3.53865 16.362 4.53234 -7.85567 2.67485 -6.60507
2042 2 1.69829 16.0749 6.22996 4.26201 1.78212 3.24951
2045 3 3.42628 14.4715 6.03218 -4.87723 3.72827 -0.250345
2044 1 1.76707 14.5533 8.18796 -1.84437 -1.78594 0.287594
2047 3 3.30046 16.3838 8.37392 2.89798 -1.93191 -2.92039
2041 1 -0.151414 14.371 6.28176 0.357434 -0.663508 -6.83827
1143 1 -0.232633 16.1135 4.44366 5.67512 0.95653 11.2656
1151 1 7.21264 16.3368 4.83131 2.24842 5.81245 -2.67226
1148 3 5.46355 14.3917 4.41899 -3.95623 2.11495 -1.86311
2046 3 5.19339 16.2461 6.41876 -1.65357 3.92356 3.08707
2049 3 7.30349 14.3606 6.4336 -6.26097 -1.70839 -2.10748
2048 1 5.10015 14.4905 8.268 8.57346 -3.48237 6.62656
2051 1 6.49319 16.4149 8.45486 0.486709 6.94492 0.236543
2052 1 8.64472 14.3832 8.24182 -3.60115 -8.26006 -3.75491
2050 2 8.6687 16.178 6.67752 -7.03056 -3.06162 -7.49252
1152 1 8.75655 14.393 4.68574 2.92938 0.562647 4.15783
1155 3 10.3882 16.2986 4.94485 -9.61117 0.249645 -1.87534
1156 2 12.2736 14.4235 4.81584 3.77711 -2.10413 1.47484
2053 2 10.2952 14.6169 6.81337 -0.00723798 0.864994 -4.30751
2054 3 12.3126 16.2322 6.71014 -0.232356 -5.0005 -9.16096
2056 3 12.2344 14.5305 8.24147 -1.05273 -5.23733 2.17043
2055 3 10.7698 16.153 8.39249 -4.4831 0.500607 -0.678793
1159 2 14.1401 16.1684 4.86896 4.42136 -1.19249 0.903461
1160 1 15.899 14.3583 4.6283 -6.76345 -1.852 -2.38552
2057 1 14.3038 14.5494 6.41681 -3.73423 -4.40117 0.0520494
2058 2 16.0084 16.2418 6.59163 -0.727968 5.78015 -5.24002
2060 3 16.0415 14.272 8.11196 0.412785 -0.625998 -1.46342
2059 3 14.1308 16.336 8.61444 -0.733484 -1.85727 -5.15981
2063 3 17.8384 16.1865 8.31317 4.03597 1.55947 -0.454887
1163 1 17.8475 16.0425 5.24959 0.999069 2.0135 -1.89373
2061 1 17.9532 14.1614 6.78256 2.155 6.112 0.0371002
1164 2 19.3055 14.1413 4.90241 -4.51546 8.34981 -5.41813
1167 3 21.0423 16.0722 4.74171 -4.38136 -6.38028 0.872672
2062 3 19.6628 16.3744 6.62287 -3.75898 -4.25776 2.99573
2065 2 21.4209 14.3481 6.60975 1.65653 2.35836 3.06749
2067 1 21.4761 15.9572 8.3306 2.0026 5.9463 0.646739
2064 3 19.6404 14.2663 8.35287 0.368864 0.135883 -3.9804
1168 2 23.2999 14.3402 4.56405 2.16302 -3.24636 0.895495
1171 1 25.0087 16.285 4.64824 -2.98105 -2.87511 -9.05895
2066 3 22.9668 16.3906 6.57557 -7.64876 -1.75844 -0.0110017
2069 1 24.8402 14.5455 6.28738 3.85642 -2.95772 -1.77587
2068 3 23.4598 14.1987 8.35133 2.9527 6.53941 0.624587
2071 2 25.1554 16.1815 8.31981 1.72721 -5.22812 -4.32768
1232 1 26.7353 17.6255 4.78643 6.37111 3.53358 -2.92985
1204 3 1.66412 18.0978 4.77035 -0.530609 3.49048 -5.89313
2101 2 -0.206839 17.9026 6.42258 -3.58841 -1.30364 -2.34125
2105 1 3.36647 18.0406 6.53377 -4.24243 -3.14614 7.32874
2104 3 1.72025 18.0333 8.37953 0.585684 3.94317 1.15265
1264 3 1.46161 21.7387 4.90468 -2.09727 -4.78868 2.39438
1207 2 3.64102 19.6749 4.70923 -1.55515 3.63413 3.31085
2102 2 1.71323 19.8178 6.40853 4.58774 2.69749 1.04302
2165 2 3.37323 21.5878 6.91038 -1.18134 1.42401 -0.635574
2164 2 1.39542 21.3596 8.28786 -6.05257 -3.34698 4.03031
2107 1 3.70181 20.0699 8.36965 4.90974 -2.33159 -6.13695
2103 1 -0.0500754 19.5794 8.06745 0.219496 -1.8216 3.11254
2161 1 -0.143159 21.3031 6.45425 0.132828 2.58742 1.68581
1203 1 -0.0489214 19.7725 4.75575 -2.27254 -4.36739 -3.05501
1208 1 5.43652 17.8865 4.59961 2.17895 4.10111 -7.79459
2108 2 5.1107 18.1957 8.46141 -0.509108 -0.464937 -8.71774
2109 3 7.05226 17.8533 6.75746 8.73735 -1.34893 1.1796
1211 2 6.6945 19.981 4.50544 -0.00948431 8.7889 2.4704
1268 1 5.21678 21.6707 4.76416 2.42862 -2.15708 0.944996
2106 1 5.23264 19.8046 6.58802 0.898513 -0.570548 -1.06054
2169 2 7.20032 21.5375 6.72887 4.67882 -6.77674 3.30885
2111 2 6.84114 19.645 8.3909 2.47461 6.08888 -0.788558
2110 1 8.69478 19.7699 6.93829 -0.244732 -1.01163 1.69573
1272 3 8.6069 21.5554 4.64722 -1.65833 0.514776 6.67889
2168 1 5.27702 21.6852 8.6412 -4.63737 -3.77173 -5.9081
1212 3 8.78134 18.2837 4.80944 2.46107 5.3529 -4.64479
2172 2 8.88238 21.952 8.24823 0.739168 -0.949194 -2.17747
2113 3 10.3647 18.0349 6.79381 9.12792 -0.707044 9.38194
1216 3 12.3144 17.8866 4.85199 0.193311 -1.40321 8.04698
1215 3 10.6101 19.7532 4.6683 -4.59 4.3658 5.13979
1276 2 12.5095 21.6285 4.67168 -3.99276 0.706758 -2.23073
2114 3 12.2682 19.7282 6.61911 -2.36944 5.13389 2.78816
2173 2 10.7126 21.6003 6.50252 0.321366 -1.90056 -6.00701
2176 3 12.4012 21.514 8.52322 -4.38956 1.22157 5.51889
2115 3 10.5224 20.1058 8.49712 7.33003 7.48224 0.996676
2116 3 12.2063 18.1084 8.47492 -5.27683 -8.40378 -10.8046
2120 3 16.1428 18.0761 8.60699 4.62616 -4.3214 2.7525
2117 3 14.106 18.1679 6.80167 2.8551 -1.61621 6.24989
1220 3 15.9097 18.0962 4.78652 -3.62535 -4.1263 2.74517
1219 3 14.3406 19.6571 5.02774 -1.35703 -1.21239 -1.38579
1280 3 15.8482 21.568 4.79647 -2.79606 0.692691 6.66234
2118 2 15.7544 19.8624 6.71362 -1.66915 -4.9597 2.50317
2177 3 14.276 21.4774 6.82247 0.701443 0.686819 1.247
2180 3 16.2233 21.6244 8.59607 6.37636 0.240509 -1.43205
1223 3 17.5824 19.979 4.83532 1.38969 4.37082 -2.98788
2121 3 17.7221 18.2422 6.49225 -2.14052 2.85504 -0.672455
2123 1 17.9778 19.7777 8.41859 -1.9922 0.365335 -1.61183
2181 3 17.8119 21.5243 6.63713 -8.13759 1.41694 -6.43411
2125 3 21.2566 18.0868 6.3824 -0.269459 7.53139 -1.09239
1224 2 19.5347 17.8438 4.69639 -0.658028 5.10271 0.0618922
2124 3 19.6023 18.0504 8.3829 5.24079 1.74303 0.433022
1284 3 19.748 21.7736 4.80173 3.56375 -8.05051 -2.78557
2122 2 19.4649 19.9888 6.48715 5.99397 3.96916 0.774128
2185 3 21.3856 21.7523 6.68797 -1.53681 5.32004 4.07116
2184 3 19.6811 21.5408 8.36527 6.7277 -5.11963 6.95004
2127 3 21.2655 19.7489 8.40166 -1.70301 0.975816 0.211739
1228 2 23.1 17.9594 4.51301 9.50448 -7.58471 -0.903796
2128 3 23.0001 17.9879 8.34134 3.78424 0.367698 0.357082
2129 3 24.7257 18.0038 6.4094 1.35701 1.63361 -0.641324
1231 1 24.8857 19.5244 4.77595 1.46055 -6.8849 -4.8409
1288 3 23.1814 21.7491 4.7492 2.61494 -2.48494 2.18503
2126 1 22.9545 19.959 6.29746 10.3753 2.00458 4.94209
2189 3 24.8979 21.6096 6.3767 0.783631 -0.400061 2.85521
2131 3 24.8569 19.7773 8.5637 -8.1587 -1.54269 -0.122047
2188 3 23.2874 21.3241 8.246 4.91747 2.9756 4.49362
2130 3 26.5936 19.7006 6.61714 6.88627 2.15517 1.05708
1267 2 3.50651 23.0629 4.58909 -3.19488 6.75445 3.22801
1324 1 1.69746 25.1981 4.68907 -4.31574 6.38919 2.81179