ITEM: TIMESTEP
88200
ITEM: NUMBER OF ATOMS
13500
ITEM: BOX BOUNDS pp pp pp
-2.9053808352127675e-01 5.3810538083511545e+01
-2.9053808352127675e-01 5.3810538083511545e+01
-2.9053808352127675e-01 5.3810538083511545e+01
ITEM: ATOMS id type x y z vx vy vz
7 1 3.28726 1.72221 1.30452 -8.51655 4.76688 -1.21504
64 3 1.41665 3.4422 1.41858 0.230662 2.10488 -5.13422
902 2 1.7787 1.71282 3.29748 4.35081 0.707016 -5.45562
965 2 3.20544 3.44727 3.0661 5.93257 1.31872 5.1549
905 1 3.39664 -0.064752 3.17217 0.204913 0.748277 -1.86055
901 1 0.189975 -0.190969 3.20383 3.38883 2.5617 1.72931
961 2 -0.236587 3.3834 2.95763 2.35245 0.13819 1.66541
3 2 -0.188612 1.3207 1.55927 10.5419 -1.30279 -4.08457
61 1 -0.276009 3.25795 -0.266411 4.78435 1.70856 -0.350882
11 1 7.05742 1.65376 1.66009 -2.56848 2.57746 0.343865
68 2 5.14239 3.58211 1.27849 3.53729 1.96767 5.98337
906 2 5.0509 1.83289 2.86855 -3.78844 6.5415 4.253
969 1 6.93966 3.52492 3.46807 1.13486 1.34986 0.512077
909 3 6.60985 0.0845504 3.32267 -1.56026 -2.10196 -1.52492
69 3 6.78694 3.621 -0.251654 -5.61624 1.26211 -5.1943
8 2 5.31238 -0.224033 1.4058 -0.498475 3.43339 9.82388
12 3 8.65984 -0.248531 1.57427 -0.465452 -0.424158 1.55067
72 2 8.73728 3.33035 1.40103 3.2761 0.0014601 5.07167
910 1 8.88678 1.73724 3.1899 -4.45753 2.70398 -3.65936
15 1 10.6807 1.54285 1.36285 -0.214683 2.2294 4.20751
76 2 12.3675 3.31456 1.67368 5.12097 -0.370861 0.05042
914 1 12.2727 1.50472 3.23612 -3.44561 -5.1628 3.58448
973 1 10.6844 3.20112 3.13309 3.13107 -4.89618 5.57714
16 2 12.1242 -0.0611879 1.53036 -5.60858 2.94581 -2.33416
913 2 10.4848 -0.185478 3.3304 -1.37769 4.58601 1.77348
19 1 14.2995 1.51541 1.41183 -0.332931 -0.171398 -0.0244467
80 1 16.1003 3.4565 1.27807 1.71468 -7.6297 6.51013
918 3 16.1029 1.16462 3.51477 6.5941 0.939999 6.8353
977 2 14.5495 3.36672 3.06118 1.96315 -8.11788 0.0663002
981 2 17.634 3.09154 3.09213 -3.52344 4.96643 2.81763
23 3 17.6124 1.21712 1.24034 -9.01871 -1.38363 -2.20308
17 1 14.1132 -0.121883 -0.165493 0.557473 10.6964 -4.01422
27 2 21.3066 1.61672 1.62534 6.21531 -3.23257 0.856513
84 1 19.5196 3.09855 1.44884 -11.7578 1.84735 6.10098
922 1 19.342 1.46647 3.15283 0.84519 -4.88331 0.997121
985 2 21.0615 3.1717 3.20401 -1.64302 -9.37625 -5.33859
925 1 21.4229 -0.270299 3.276 -0.585872 -5.45606 7.86837
22 3 19.4968 1.51745 -0.213287 -1.94049 6.04775 -3.9574
31 3 25.1537 1.31899 1.38869 -2.16657 -4.8026 2.60044
88 2 23.0417 3.34417 1.45594 -2.64483 -3.12603 -5.74559
926 1 23.1512 1.66247 3.19826 3.94607 -1.76181 -9.023
989 2 25.0049 3.18769 3.16347 1.18495 -4.64638 2.69163
930 3 26.7403 1.2547 3.06417 1.29004 -1.39089 5.74345
26 1 23.0509 1.44119 -0.0692213 7.13838 0.442268 -3.65835
67 2 3.29359 5.38081 1.45701 3.16142 -0.429881 0.312387
124 1 1.48222 6.94559 1.34251 1.67217 -2.85502 -9.10336
962 3 1.47132 5.05622 3.2291 2.28002 -0.846939 -4.52538
1025 3 3.13724 6.8652 3.32068 -4.71666 -1.32479 4.34673
1022 3 1.52887 8.72047 3.19305 1.71936 2.81023 -2.31196
127 2 3.38225 8.55427 1.44657 -4.14641 6.38625 1.46314
122 2 1.70805 8.50824 -0.257616 1.66212 -3.25985 -2.68312
123 3 -0.0225768 8.62986 1.49621 -1.05874 1.27514 -0.00264537
1021 3 -0.183505 7.05021 3.31019 1.8652 -1.55402 6.0554
71 1 6.74995 5.58392 1.57521 2.33666 -0.907382 1.37397
128 1 4.95173 6.95594 1.80323 8.57782 0.523885 14.1358
966 1 5.20805 4.92685 3.16386 -4.21106 -4.49674 -4.51069
1029 2 6.81255 7.39705 3.01033 3.33756 0.462407 -2.33128
970 3 8.64294 5.1408 3.09942 4.08034 -4.02685 -0.836057
132 3 8.82283 7.18849 1.3112 4.61142 -8.20933 -0.501074
70 2 9.10449 5.20535 -0.249587 -1.36132 1.36505 -2.10715
75 1 10.6565 5.17723 1.50617 -4.02775 -8.18634 -1.77071
136 2 12.3059 6.9466 1.14597 1.73872 -2.64755 0.46969
974 1 12.704 5.17382 2.97928 0.178149 -3.61753 1.96707
1033 3 10.7361 6.99505 3.23637 -0.953993 -0.629737 1.52326
79 1 14.2456 5.1292 1.33577 1.39704 -5.49711 0.129686
140 2 15.7669 6.96996 1.12745 -4.35957 -6.43618 -4.59399
978 1 15.9025 5.23476 2.99913 3.98828 1.94019 2.1302
1037 1 14.1014 6.92706 2.98592 6.16204 -6.78288 -0.530407
1038 1 15.8613 8.58854 2.86772 4.28862 2.48791 1.28422
83 1 17.7369 5.30802 1.18028 5.63485 2.67975 7.9298
1041 2 17.6987 7.21052 3.25452 -0.543438 5.30489 4.24064
87 2 21.2813 5.18648 1.58539 -4.74031 1.81628 -2.08152
144 2 19.6099 7.01089 1.33207 -1.79263 -2.61036 5.48364
982 1 19.546 5.10545 3.14232 -4.70719 -1.305 -2.04812
1045 1 21.377 6.98399 3.26497 2.53063 -5.89263 1.95638
1042 1 19.6887 8.63677 2.97076 0.69079 6.82447 4.03703
143 1 17.7941 8.66236 1.42931 -6.78483 -5.45364 1.55094
91 2 24.6959 5.13741 1.50021 -3.8451 8.59553 -5.01524
148 3 22.9844 7.03983 1.54166 2.21845 -1.84203 0.939999
986 1 22.886 4.83142 3.28075 -5.06158 -6.08705 -2.68222
1049 2 24.7014 6.75782 3.18673 7.98947 2.66382 -5.55422
152 1 26.5101 6.91916 1.65598 1.48021 -3.55039 -0.148902
90 3 26.5413 5.1842 -0.11962 -0.454123 -2.54311 0.285684
149 1 24.6358 7.27573 -0.213863 3.11481 3.56553 1.64195
1081 2 -0.163562 10.8085 2.76482 -1.61267 -7.58709 -4.61594
184 3 1.71383 10.479 1.41919 0.799702 -2.09582 5.02426
187 3 3.51331 12.3393 1.38814 0.459998 -2.04285 1.72692
1082 3 1.72221 12.3222 3.392 -2.26625 -4.25823 0.138148
1085 1 3.33376 10.5813 3.31179 -1.76321 0.523813 5.33349
131 2 7.01614 8.74996 1.13284 4.87636 4.9001 1.91823
1026 1 5.0043 8.79931 3.22993 -2.67965 3.18913 0.177461
188 1 4.97887 10.5998 1.3108 -3.12953 0.498887 -5.81503
191 1 6.61693 12.7291 1.45236 -3.65309 1.14484 -2.11209
1086 2 4.89055 12.4552 3.40235 -0.909954 0.211004 4.25072
1089 2 6.61225 10.8215 3.34732 3.26819 -6.75305 0.768638
1090 3 8.557 12.3971 3.26368 1.3637 2.49539 4.04132
189 3 6.59296 10.7549 -0.215151 -7.54985 0.594426 0.769979
192 3 8.76835 10.7424 1.17204 -1.99912 -8.85746 1.22225
1030 3 8.73232 8.88528 3.08218 -6.55811 -2.53371 -1.76789
1034 2 12.3126 8.7758 3.19076 5.61347 -2.9829 -3.84441
135 2 10.5497 8.73628 1.43885 -1.33325 -8.69437 0.448998
195 1 10.4348 12.4726 1.17766 -1.90325 -2.88178 -3.9311
196 2 12.6448 10.7843 1.57337 -0.863163 -2.91498 -0.297463
1093 3 10.6293 10.768 2.92286 -2.06927 -3.7502 0.682498
1094 2 12.6123 12.4066 3.22013 0.265792 -2.67478 -4.33673
134 1 12.0332 8.81008 -0.288375 0.253218 4.01031 -4.92311
139 2 14.1854 8.82872 1.23118 0.874592 -4.0195 -2.54864
199 2 14.0025 12.5127 1.22631 2.25489 -4.83382 -1.68999
200 3 16.0181 10.6062 1.07791 -0.98674 -1.77004 0.606561
1097 3 14.1374 10.4112 3.10969 -5.12019 -0.486367 1.79096
1098 1 15.9549 12.8973 2.58627 4.28108 0.890849 -7.73396
1101 2 17.806 10.2274 3.02791 4.14329 2.25297 3.28706
203 3 17.7392 12.2714 1.28643 -3.06835 -0.642517 -0.591672
147 2 21.2409 9.02056 1.49109 -4.81655 -5.13203 -1.0074
204 2 19.5178 10.8399 1.47956 0.837387 -0.74977 0.703108
207 1 21.6098 12.4618 1.63299 -2.21956 2.25037 9.76178
1102 2 19.6687 12.3173 3.18245 -0.95765 0.365436 -2.76521
1105 3 21.2868 10.5702 3.28382 -10.3778 -11.0725 1.51307
151 3 24.8281 8.8128 1.40948 -0.300114 2.29268 -9.57857
150 1 26.6747 8.86686 -0.288236 -3.836 1.26292 -3.22624
210 3 26.7086 12.1337 -0.2895 -1.05775 -0.829525 -7.48336
1046 3 23.0847 8.74035 3.18054 -1.557 -2.32487 1.51428
208 2 23.2889 10.4673 1.63808 -1.1463 4.95548 1.88648
211 3 24.9666 12.3751 1.40078 0.660843 -2.01095 -5.2564
1106 2 23.2829 12.4784 3.61715 0.985262 -1.30182 0.757647
1109 1 25.0047 10.8472 3.48951 -3.09884 -4.42304 4.04894
1050 3 26.5498 8.96746 3.54274 2.36067 -0.627841 -3.60348
146 1 22.9351 9.02707 -0.137707 -4.19785 -2.96049 1.9135
244 3 1.5034 13.9987 1.53971 5.7542 0.830121 0.933283
247 3 3.33271 16.014 1.40195 -0.433308 -5.26144 2.50727
1142 3 1.72222 16.0801 3.16553 4.02535 1.26484 7.07849
1145 3 3.47063 14.3592 3.06146 -2.44179 3.23058 5.11934
1141 3 -0.208167 13.9502 3.08608 -0.984612 1.68145 1.84679
243 2 -0.290127 15.984 1.27757 -3.47453 -5.794 8.51746
1205 1 3.41656 17.7191 3.43313 -7.56691 -0.887485 -4.64747
248 3 4.9771 14.3264 1.2689 1.02576 -0.605908 5.257
251 2 6.60406 16.2383 1.06306 -1.30257 -1.99459 -2.04198
1146 2 5.16282 16.339 3.07857 -2.19515 -3.92968 6.18766
1149 1 6.60143 14.2802 3.12056 -2.12277 2.83162 -2.37462
252 2 8.69046 14.1265 1.62721 0.610331 -6.17125 1.87828
1150 1 8.48826 15.9612 3.19325 -5.89327 -2.48481 -5.1734
255 2 10.3942 15.6009 1.41583 -3.58573 0.178217 -1.20161
256 1 12.2459 14.2338 1.55998 -4.54411 3.03281 0.940238
1153 3 10.6272 13.5436 3.41664 3.07008 -3.01868 0.214306
1154 1 12.5524 16.1343 3.23349 -4.86003 3.38255 -3.72196
312 2 8.94107 17.5724 1.28146 -2.50158 0.716274 -1.61966
316 3 12.2792 17.7014 1.34182 -2.01606 -7.4008 -2.11195
259 2 14.0811 15.9658 1.14111 0.811672 2.85098 1.32138
260 2 16.0059 14.411 1.18999 8.92761 0.920473 4.94838
1157 1 14.1703 14.3248 2.99246 3.0131 -10.6733 -3.18161
1158 1 15.958 16.0522 3.05368 0.545892 -2.56514 1.38796
263 2 17.7297 16.0096 1.05298 -2.98054 8.68881 -0.180267
1161 1 17.8219 14.3866 2.86565 2.3089 1.72528 7.16129
264 3 19.7026 14.3341 1.14329 -4.09893 -7.38116 -8.05208
267 1 21.3871 16.008 1.26728 3.88016 2.08544 -0.479218
1162 2 19.7738 15.627 3.1088 5.03519 0.0447536 -0.42211
1165 2 21.6902 14.2012 3.26794 1.47995 1.23681 6.50668
1225 2 21.6596 17.6888 3.1044 0.425574 6.02186 1.31021
1221 3 18.0651 17.452 2.89662 2.98474 5.26203 0.669237
268 1 23.2645 14.1749 1.28842 4.2407 -0.495019 7.26297
271 2 24.9097 15.9517 1.23419 5.39925 -0.705976 4.53669
1166 3 23.3206 15.8502 3.19109 -1.62466 2.38419 -0.466363
1169 3 25.0644 14.2398 3.39343 8.19924 2.26336 -2.71569
1170 1 26.5146 15.8889 2.87377 0.93163 -3.32041 2.58755
304 2 1.49446 17.8794 1.27966 1.15314 11.0081 -2.72148
307 2 3.23286 19.7661 1.17913 4.86044 5.75709 -2.72094
364 1 1.31928 21.5811 1.41478 -1.10707 -0.805961 -1.65401
1202 1 1.64005 19.5151 3.27122 1.00953 -5.5381 0.879621
1265 1 3.33227 21.4161 3.23685 -0.889644 -1.31356 -2.17344
303 2 0.0261678 19.7051 1.48795 7.15948 -2.46356 -1.0046
1261 2 -0.0875895 21.1456 3.39655 3.1522 -13.7586 -3.07139
308 3 4.86046 17.9101 1.44061 -4.16192 -3.03286 4.22627
1209 1 6.84449 17.8846 2.82597 -0.0584685 -1.70482 -7.03227
311 1 7.13315 19.5543 1.30217 -1.81926 -8.50955 -3.88085
368 1 4.92221 21.39 1.36052 -0.480953 1.72522 -0.421783
1206 2 5.16895 19.7048 2.95948 -0.992813 -2.99355 3.7805
1269 2 7.0699 21.3711 3.18328 5.16401 -2.9895 2.06771
372 1 8.9888 21.4826 1.47564 6.34342 2.73819 0.962002
1213 3 10.7038 17.8924 3.44279 5.61872 -0.30411 -3.13827
1210 1 8.80596 19.4833 3.38156 -0.459794 5.18973 -4.24492
315 3 10.498 19.3157 1.62774 -5.5108 4.04617 -10.3188
376 1 12.4166 21.3708 1.50168 -4.67249 -5.21551 -5.37827
1214 3 12.4714 19.3526 3.22101 -4.98852 -0.425431 -4.61895
1273 3 10.5755 21.3086 3.22043 -3.40858 1.07205 -2.35717
310 1 8.85566 19.6841 -0.168466 3.05071 -1.41391 -0.345807
314 2 12.6093 19.7873 -0.261026 -0.708547 -0.567387 8.50981
320 1 16.1237 17.7899 1.0833 -3.18175 7.58104 -1.23907
1217 2 14.4887 17.838 3.19233 -3.35416 -3.30186 -1.05488
319 3 14.2675 19.5079 1.35402 -0.970136 -4.44653 -3.22938
380 3 16.1775 21.2325 1.27237 -1.99727 -2.848 4.97535
1218 2 16.0512 19.3669 3.03949 0.602413 2.48317 -2.92925
1277 3 14.3211 21.1283 3.28347 -0.292861 -4.69974 -9.76885
324 2 19.8077 17.9755 0.924271 -0.859097 4.98551 -3.34074
1281 1 17.7968 21.229 3.12975 0.47689 -4.84203 -1.58894
323 1 17.9911 19.485 1.41766 -4.47918 -0.619924 5.29063
327 1 21.3539 19.9514 0.594915 -2.94836 -4.03347 0.0240076
384 2 19.4717 21.511 1.28182 0.385147 -4.67441 1.86855
1222 2 19.8406 19.165 3.07793 2.15793 -1.04262 2.22921
1285 1 21.1012 21.3275 2.89237 1.0603 4.38767 -1.2354
328 1 23.1693 18.0449 1.2855 -3.263 3.29287 1.13263
1229 1 24.8618 17.954 2.84746 -9.44304 5.88639 1.93045
331 1 25.0927 19.5969 0.810392 -5.05912 0.381377 8.60988
388 2 23.2785 21.5023 1.23104 -5.56323 5.52365 0.230555
1226 2 23.1167 19.7521 2.91179 0.274361 3.18606 5.29795
1289 1 24.9288 21.5161 3.35065 0.0884073 3.61456 2.86072
1230 2 26.5688 19.7319 3.09221 -1.27511 0.928407 -6.41844
392 1 26.5332 21.4398 1.23564 -2.25422 6.32269 3.13746
367 2 3.23857 23.0586 1.36927 -0.704081 0.0056885 2.33569
424 3 1.33266 25.027 1.4756 6.80597 9.34507 -5.76388
1262 2 1.33674 23.0792 3.09115 -4.18436 3.8061 -1.66516
1325 2 3.56153 24.6424 3.13645 7.33419 0.489503 -0.920716
1322 1 1.19877 26.7386 2.98888 -0.773737 6.47509 -10.8236
425 3 3.55564 25.0249 -0.114246 -0.439795 0.913462 -2.97226
427 2 3.3531 26.6575 1.55276 -4.23419 -5.78052 -3.35542
371 3 6.98368 23.1791 1.24385 -0.361927 0.929023 -3.83402
428 1 5.3048 25.1515 1.38188 1.3587 7.85754 6.74952
1266 1 5.39999 22.8238 3.07138 -2.96225 0.688687 4.22315
1329 2 6.9412 24.7861 3.00733 -4.28701 1.80029 4.6993
432 1 8.65864 24.9973 1.50727 -5.13682 -7.00018 7.62029
1270 1 8.69964 23.1129 3.19571 -4.73569 8.4527 4.03918
435 2 10.5185 26.5835 1.19345 8.91655 -3.47579 -1.22186
375 3 10.4955 23.1048 1.34955 4.83023 -7.85612 2.0023
436 1 12.5033 24.8289 1.30829 -1.63021 6.91658 -3.18257
1274 2 12.6635 23.0259 2.93664 9.72651 -2.4252 -0.314245
1333 3 10.8598 24.9227 3.06804 0.139444 0.967348 -3.68383
1330 1 8.88947 26.7308 3.18485 1.47179 -6.7008 -2.8162
379 2 14.3999 23.3061 1.30416 2.34539 -4.09967 2.47382
440 1 16.0205 24.69 1.38271 -5.73438 1.51395 -8.23336
1278 1 16.0081 22.9481 2.93642 5.81466 3.21617 -2.79532
1337 3 14.3475 25.0649 3.32743 -8.62727 -10.2647 -0.633674
439 2 14.187 26.5488 1.19148 2.91792 -2.0695 -5.46047
438 1 15.8426 26.6888 -0.225389 -2.54544 4.29773 0.42662
1338 1 16.2552 26.6975 3.01186 0.606782 -3.27014 -0.507798
1341 3 17.9045 24.8632 3.08173 -2.41908 3.17852 0.237782
383 2 17.8818 23.2609 1.14799 -0.786625 -5.53865 1.94316
387 2 21.6517 23.2391 1.31493 -6.93326 4.19943 -1.81008
444 1 19.8695 24.8276 1.08502 6.06493 0.115298 2.2727
1282 1 19.7403 23.2007 2.82787 -1.99572 0.397263 -0.794741
1345 1 21.474 25.2316 2.86388 -0.0507607 -1.46841 9.21791
443 3 17.9597 26.6001 1.10156 4.16722 0.62651 3.4486
1290 2 26.5011 23.3276 3.0692 -4.17178 2.37145 -0.100051
391 2 24.9333 23.2296 1.32583 2.71368 1.63518 -0.162316
448 1 23.4466 25.0436 1.3181 -1.45639 -14.2334 0.059349
1286 2 23.2128 23.2316 3.18395 -0.0132849 -3.60373 3.90354
1349 3 24.9284 24.8823 3.27845 5.33764 -4.2938 6.7424
452 3 26.6361 25.1112 1.43011 4.03506 -7.46983 -0.963221
907 3 3.49269 1.12188 4.94445 -0.163333 -1.07896 3.52816
964 1 1.40415 3.30931 5.05851 -0.408082 1.4825 -3.7075
1802 3 1.45647 1.50009 6.58078 1.41369 -3.0489 2.95017
1865 3 3.35722 3.45942 6.69073 4.31651 -3.79014 -4.17933
1864 3 1.49134 3.14896 8.48169 1.9853 2.56853 -0.607937
1807 1 3.28408 1.47815 8.72423 1.27434 -1.07033 2.11811
903 1 -0.159954 1.32474 5.04869 -7.03971 1.29374 1.03088
1801 3 -0.17335 -0.037794 6.93049 -0.672434 -6.48012 1.63881
1803 3 -0.283854 1.62831 8.44119 -2.05209 3.37722 2.78088
1805 3 3.31749 -0.165262 6.88276 -4.48568 3.54104 -2.23928
1804 2 1.75955 0.0204978 8.59889 -1.29849 -2.51596 -5.3284
911 2 6.86082 1.81638 5.00086 4.56254 -3.61857 4.10797
968 3 4.9056 3.3257 5.04955 -0.497077 4.64897 -3.60057
1806 2 5.16492 1.66286 6.70217 3.22529 -3.34564 5.75195
1869 1 6.6367 3.63795 6.45319 -3.21255 2.13321 -5.44065
1808 3 5.02839 -0.280344 8.66884 -4.13478 1.61933 1.76493
1868 1 4.86738 3.27788 8.66415 1.83148 -4.64017 -2.44142
1809 1 6.83265 -0.0797888 6.85436 -6.0699 -5.94801 0.706293
1811 1 6.80465 2.15431 8.41915 4.30424 -5.26805 3.02677
912 3 8.63145 -0.131822 4.85519 0.387962 -6.09702 -6.94769
1812 3 8.75712 -0.0181019 8.53431 4.2769 -1.29152 -4.09739
1813 3 10.8222 -0.0614948 6.92656 3.54387 6.55148 2.3044
972 3 9.03854 3.41828 5.00405 4.33581 -2.08074 -1.84162
1810 3 8.89199 1.58098 6.60529 0.487471 -2.66492 0.62236
1872 2 8.86289 3.53279 8.51572 -3.4357 -4.46517 -2.10202
915 2 10.6847 1.51502 4.81826 2.88669 -6.18508 -4.07938
976 3 12.3393 3.13178 5.04522 -1.36206 -1.53589 6.15504
1814 3 12.4153 1.51278 6.91237 2.99524 -2.91171 -0.066198
1873 3 10.826 3.35461 6.70716 0.953192 3.67708 -4.34191
1876 3 12.6403 3.59058 8.51779 1.27611 1.02948 -2.73243
1815 2 10.4131 1.65368 8.57757 5.52699 -3.44329 2.40251
920 3 15.6495 -0.18812 5.14064 6.44848 -5.44811 5.51275
919 2 13.8879 1.31586 5.22126 -0.00867403 0.74365 1.47401
980 1 15.9936 3.42619 4.96047 1.2786 -5.52883 4.91602
1818 3 16.0372 1.63653 6.90251 3.42993 -2.64225 7.97395
1877 1 14.3868 3.21569 6.53145 -0.501955 -2.65306 -1.49258
1880 2 15.8792 3.36317 8.58785 -1.86495 -0.30529 7.98486
1819 3 14.0743 1.70841 8.58481 -0.433414 7.99646 4.21256
923 2 17.824 1.38511 5.31733 4.41553 7.44186 -0.686453
1823 1 17.8347 1.41564 8.56638 1.00109 -1.45051 -1.21219
1881 3 17.813 3.4668 6.77642 -6.42141 -5.7337 2.03714
927 3 21.1974 1.58616 5.24132 0.550526 -0.929959 -0.566037
984 1 19.5158 3.47067 4.77713 0.0759077 6.5562 -3.88542
1822 2 19.3356 1.28747 6.86845 -8.13242 3.8017 -0.483833
1885 3 20.9506 3.41912 6.75038 -1.2623 -3.39465 6.08817
1884 2 19.3907 3.16401 8.5083 -9.46313 -0.0179556 8.33165
1827 3 20.9932 1.2644 8.63103 -0.999363 3.35742 -5.78714
931 2 24.8187 1.43458 4.94868 -0.343969 2.82332 1.62
988 1 22.8417 3.33495 5.05008 -5.98588 3.92634 0.994723
1826 1 23.4565 1.80299 6.74495 -2.59638 -0.530279 0.47905
1889 1 25.0065 3.41683 6.8128 0.52873 7.85299 3.66473
1888 3 22.865 3.32418 8.51154 8.42006 -2.67128 0.00857237
1832 3 26.51 -0.17685 8.53688 -0.530023 -2.60694 3.79568
992 3 26.541 3.20802 4.87066 -1.621 -6.45477 -2.08262
1828 3 23.0209 -0.160915 8.21271 -7.31854 -3.10004 -2.22404
967 3 3.17022 4.90673 4.85025 4.51115 -4.21346 3.63464
1024 1 1.45988 6.91479 5.18738 0.0793738 0.565412 1.22283
1862 2 1.39982 4.91813 6.72519 -6.13861 -3.38488 7.77348
1925 1 3.39172 6.97684 6.63003 -0.429827 -3.1179 -0.870536
1924 3 1.47453 6.70047 8.53534 1.10633 -3.37893 7.01507
1867 3 3.27338 5.04872 8.46162 -1.89371 -0.078192 -1.45897
1922 2 1.44426 8.56429 6.53978 -0.3293 2.84483 -3.81905
1927 3 3.27265 8.52128 8.45108 -0.291784 -2.65763 -2.87296
1027 2 3.16995 8.67668 5.03457 0.843893 -6.19213 1.10347
971 2 6.80813 5.4558 5.06935 -3.1926 -6.80164 5.03609
1028 1 5.15243 7.06688 4.68407 1.61115 -2.25741 -4.34178
1866 2 5.0419 5.24668 6.74791 -0.330199 0.914699 -4.11295
1929 1 7.08474 6.97064 6.61591 2.49154 0.858731 5.18083
1928 2 5.00941 6.84657 8.5352 3.71432 7.40437 -4.43879
1871 2 6.96283 5.39143 8.50403 -0.0879351 1.43818 1.14019
1926 1 5.31439 8.55971 6.9504 5.44844 -2.35133 6.65615
1931 1 7.02273 8.65106 8.58388 -1.34204 -2.59281 0.764279
1932 2 8.69359 7.02555 8.43889 -5.78065 -2.09204 -2.75615
1032 1 8.70868 6.91914 4.71584 -4.79291 1.73726 3.84356
1870 3 8.88919 5.08963 7.00578 -2.935 -6.02082 -0.623769
975 3 10.7457 5.06079 4.99467 -1.21726 3.8825 -1.89577
1036 1 12.5435 6.57891 4.76284 -6.62315 1.49139 -4.08775
1874 2 12.3986 5.19511 6.61368 5.94333 -8.30973 3.95789
1933 3 10.8548 6.89833 6.75189 -4.19791 2.23898 -0.381032
1936 3 12.4684 6.9157 8.59245 0.49536 -8.23337 5.92162
1875 1 10.5679 5.19982 8.60607 3.15496 -1.30022 4.60963
1934 3 12.4943 8.58122 6.69881 -7.84867 3.89906 -0.357598
1035 3 10.4343 8.55396 4.89131 -1.01628 -0.340266 0.903185
979 2 14.3454 5.41703 5.04391 3.47114 -2.10005 -1.09388
1040 3 16.0028 6.82695 5.02113 4.34067 4.17682 5.49369
1878 3 16.0502 4.96833 6.79452 -4.26507 -3.36032 7.98374
1937 1 14.0632 6.83203 6.60853 5.25026 2.7285 2.85229
1938 3 16.0685 8.59538 6.72083 -2.78673 0.770686 -1.7143
1939 1 14.1246 8.56996 8.51341 -3.21504 1.58512 6.8941
983 2 17.744 5.21087 4.61135 1.90604 2.45828 0.558594
1941 3 17.6207 6.78018 6.68369 2.52525 -1.91347 5.04301
1943 3 17.7209 8.43811 8.32278 3.92409 -5.13269 -3.26599
1879 3 14.179 5.13645 8.46812 0.847933 -3.96463 -9.46262
1940 2 15.86 6.68366 8.33194 -0.682234 -5.25604 -8.6595
1883 3 17.8132 5.17212 8.56862 -1.82591 2.73692 1.68521
987 2 21.146 5.26323 4.89128 -4.70528 0.150997 0.46647
1044 3 19.5541 6.97752 4.82436 5.54969 2.56225 4.80568
1882 1 19.5878 5.26899 6.55975 2.10161 7.58943 -0.143029
1945 1 21.441 6.86903 6.70183 -1.0965 -0.609598 -0.762356
1887 1 21.3586 5.11303 8.62876 -6.18099 0.315827 -1.18217
991 3 24.6878 4.77937 4.66746 2.81071 5.15987 0.142518
1048 1 23.0849 6.79086 4.9925 -1.61914 -4.4946 -3.2613
1886 2 23.1278 4.92401 6.80496 -7.85814 6.16639 1.11673
1949 3 24.7795 6.81463 6.78278 1.60724 3.94234 1.69433
1952 1 26.4601 6.67076 8.56954 -3.06283 -3.45219 -3.83304
1948 2 23.1472 6.84282 8.50034 4.06001 -1.18686 -1.19137
1052 3 26.6663 6.83259 5.14562 0.696794 -0.961964 -0.626422
1890 2 26.5306 5.0958 6.80326 4.40828 8.90518 -8.65001
1951 1 24.8363 8.49777 8.58141 -2.74317 3.08385 -0.235805
1051 2 24.8854 8.59391 4.92838 -3.06569 4.94388 3.21746
1946 2 23.1661 8.56366 6.62391 0.325795 -1.54078 -2.53579
1950 1 26.3843 8.6588 6.73264 -0.718986 -10.8856 0.528362
1084 1 1.25742 10.4769 4.91267 -1.20602 3.20484 0.642893
1087 1 3.32766 12.5392 5.07027 1.24049 -4.09514 5.09548
1982 2 1.37457 12.1648 6.66412 0.235825 3.32167 -0.984903
1985 2 3.34942 10.4984 6.88767 0.16299 1.47242 1.64478
1984 1 1.35741 10.4981 8.48721 -1.32273 -0.620337 -1.8921
1987 2 3.17478 12.0274 8.42259 -2.4052 3.00247 -2.4426
1983 2 -0.278829 12.3489 8.41185 0.975997 4.98251 -0.109858
1031 1 6.88143 8.78755 4.89299 -0.706061 8.95319 -2.77034
1088 1 4.79671 10.4867 5.29936 2.5701 2.30492 1.44776
1091 1 6.76179 12.305 4.91604 4.15459 2.61746 -2.80221
1986 3 5.39268 12.4318 7.04838 3.11425 -0.343904 3.954
1989 2 6.94721 10.3535 6.80965 1.72862 3.3218 -3.13707
1988 3 5.0879 10.3894 8.50279 4.05005 -6.64738 4.03607
1991 3 7.13366 12.1667 8.58846 4.36082 6.31576 -0.763603
1990 3 8.73249 12.5915 6.70923 2.93242 5.32257 6.33419
1092 3 8.78076 10.244 4.77652 3.71147 -2.40191 0.903633
1930 2 9.02622 8.76295 6.63934 -2.1993 -6.10129 -7.47673
1095 2 10.5907 12.0864 5.17228 4.13686 4.05291 -13.1558
1096 1 12.5573 10.5846 4.95354 4.89704 1.187 -1.17508
1993 1 10.7307 10.3747 6.57838 -2.29121 2.07326 -4.67561
1994 1 12.0514 12.4671 6.72965 -1.94678 -8.20669 1.70688
1995 2 10.3106 12.4657 8.47944 -1.89178 0.202411 -4.16803
1996 2 12.3518 10.6648 8.49871 1.65726 -1.00527 5.79882
1935 1 10.7111 8.73598 8.52182 0.932945 -0.383032 0.757611
1039 2 14.0966 8.87489 5.02804 5.8985 -2.18123 -3.92118
1099 1 14.2398 12.3045 5.06326 3.33222 -4.91583 3.28344
1100 3 15.994 10.4324 5.0286 -0.0995977 2.50387 -10.5261
1997 2 14.0381 10.4294 6.82315 -3.2455 1.34392 -7.60393
1998 3 15.6848 12.3659 6.84547 9.3808 -4.49484 -1.84491
2000 3 15.7278 10.2642 8.44348 2.12227 -0.910069 -5.71005
1103 3 17.525 12.2368 4.68585 -5.41674 3.44315 1.47403
2003 3 17.6583 12.3837 8.69083 5.33459 3.95051 -3.82167
1947 2 21.44 8.99855 8.54875 -8.30936 9.79922 -2.9701
2001 3 17.966 10.8087 6.63629 1.37115 -2.33887 -0.185492
1942 3 19.5173 8.8193 6.80031 7.07656 0.297129 1.37276
1043 3 17.8799 8.80486 5.1323 -0.658455 -0.912628 0.659137
1047 2 21.085 8.78902 5.1919 4.09896 -2.15241 0.364042
1104 1 19.8086 10.4295 4.96219 3.65923 -3.12816 2.11836
1107 3 21.4736 12.2492 4.9326 -2.95996 1.54776 -2.9687
2002 2 19.5178 12.5236 6.78475 -1.6644 0.153693 3.51711
2005 3 21.201 10.6638 7.04768 3.53026 -4.03109 -1.38311
1108 1 23.3904 10.533 4.89956 -0.477505 -6.67395 -1.33968
1111 1 25.1983 12.5781 5.16921 -0.454778 -5.90705 -1.46271
2006 1 23.1664 12.3056 6.93746 7.76642 3.35065 8.75135
2009 3 24.9534 10.4783 6.93156 1.11964 -1.82715 -2.00388
2008 1 23.2746 10.345 8.52793 -1.64357 -0.950066 2.8092
2012 2 26.7525 10.4017 8.58241 2.8243 -2.51358 -1.90074
2011 3 24.9177 12.208 8.57046 6.27729 6.05966 1.49127
1112 3 26.7343 10.6319 5.20099 -2.5623 -1.75519 5.56781
1144 2 1.56812 14.2687 5.02205 -2.4677 -5.21338 -3.38368
1147 2 3.36579 15.8968 5.243 -4.16907 -5.28877 0.924418
2042 1 1.5829 16.1717 6.76759 -1.5608 5.81946 6.59751
2045 1 3.1935 13.9489 7.06786 4.32322 0.0432562 4.59447
2047 3 3.45541 15.7898 8.53763 -0.980207 -2.23764 4.34128
2044 3 1.38837 14.2117 8.52138 3.12634 0.0747307 -0.85224
2041 1 -0.108492 14.1006 6.71532 -0.97469 5.95045 0.576151
1143 3 -0.145272 15.9944 4.78223 -8.05965 4.90468 9.94583
1204 2 1.51442 17.5098 4.98821 0.401766 9.46121 -0.0195722
2043 3 0.0719953 16.2759 8.61466 9.76487 -3.70718 4.11325
1148 2 5.13805 14.2693 5.30048 2.79064 -2.27965 -4.89701
1151 3 6.79855 16.0893 4.9356 -0.921172 -0.858613 -4.64861
2046 1 4.73674 15.988 6.63427 -0.987253 -0.968155 -4.94089
2049 2 6.98253 14.1936 6.44577 3.6355 -4.78164 3.64818
2050 1 8.70793 15.9654 7.01576 0.898251 -2.44462 -4.02591
1152 2 8.60516 14.269 4.74527 1.38021 -1.46917 -7.39583
2051 3 6.8953 15.7701 8.44236 -0.378468 -2.65219 4.95453
2109 2 6.99083 17.6349 6.79918 6.72653 1.35435 2.31456
1212 2 8.67765 17.5068 4.92315 -0.72813 2.41627 5.30921
2052 1 9.05518 14.0623 8.62396 6.0235 2.2652 -2.43274
1155 3 10.6522 15.6411 4.69835 -6.57926 -4.40539 6.19716
1156 2 12.588 14.097 5.08379 2.69453 2.26101 3.04924
2053 3 10.4675 14.5144 6.68154 3.44842 1.66646 -1.51235
2054 3 12.2823 15.9486 6.80324 -4.99592 1.16709 -7.4947
2113 1 10.4618 17.6193 7.03991 9.42258 2.23222 -2.44384
2056 1 12.2639 13.9073 8.44687 8.15201 2.81457 0.711364
1216 3 12.4307 17.5432 5.01933 2.5327 -2.72523 4.99025
1159 3 14.5661 15.6838 4.89206 5.98699 -9.1422 16.0125
1160 2 16.0665 14.0247 4.89538 -6.79038 6.53393 6.09388
2057 3 14.3009 14.037 6.96567 -3.35024 -1.91991 -6.68766
2058 3 15.948 15.8077 6.88161 2.99113 -4.05709 2.03105
2061 2 17.6435 13.9486 6.59495 0.20941 -2.22184 -1.20942
1163 1 17.7145 15.8725 4.7643 1.35186 1.03365 5.30534
2117 1 14.3099 17.523 6.74829 -7.38085 -1.60827 -0.00145975
2059 2 13.9905 16.1598 8.65682 1.56805 5.45541 -2.12144
2060 1 15.8416 14.3263 8.63803 3.04977 0.892875 -4.98758
2063 2 17.8943 15.8397 8.59081 3.60165 2.14772 -5.33538
2121 2 17.8777 17.326 6.6372 2.94922 -0.737104 -4.39869
1164 1 19.5304 14.0281 4.73254 -2.41773 -3.51808 2.40773
1167 3 21.1598 15.9348 5.03096 -0.100681 3.75701 -1.87405
2062 3 19.5803 15.5416 6.65141 -2.06448 -2.11762 5.96953
2065 2 21.3799 13.8212 6.81757 2.66165 2.85203 -0.839486
1224 1 19.5918 17.7329 4.81446 -1.60164 5.9259 1.44677
2064 1 19.4389 13.7654 8.48005 -1.05263 3.05094 1.42795
2125 3 21.2913 17.6735 6.58919 -0.704266 0.0291458 -1.19956
2124 1 19.4327 17.4245 8.43031 1.68749 2.62382 -2.35875
2067 1 21.0918 15.6119 8.4853 -0.228307 -4.86166 -0.835016
1168 3 23.1335 14.3229 5.01414 -6.45131 -3.5277 3.25458
1171 3 25.1299 16.152 4.8915 1.71513 -7.43172 -3.00326
2066 3 23.0326 15.5285 6.98994 0.248862 1.73576 4.828
2069 2 24.8913 14.0626 7.02957 -0.521169 -7.24689 4.00819
2071 3 24.8631 16.0582 8.54882 -1.94364 3.78197 -1.72275
2070 3 26.4791 16.1482 6.86027 0.259271 -1.32463 2.96681
2128 2 22.8451 17.6181 8.58081 -1.75765 -5.85282 5.84704
1228 3 23.4297 17.557 4.81571 -0.265572 -7.2377 -3.94645
2161 2 -0.202839 21.3817 6.55235 5.59458 2.79815 0.755193
2105 1 3.31248 17.9265 6.75187 0.29857 2.1779 -1.06805
2101 3 -0.218516 17.7942 6.62856 -2.20153 1.8281 3.11955
1207 1 3.29551 19.7319 4.99739 6.22851 -5.20561 -1.68369
1264 3 1.565 21.186 5.02399 3.04293 -1.69908 3.01064
2102 2 1.61442 19.4333 6.69184 -0.387428 -2.10791 4.11565
2165 3 3.30894 21.306 6.87602 -2.19009 2.41215 -1.19236
2164 3 1.14672 21.4689 8.31246 -0.0934184 2.79149 -1.60519
2107 2 3.41638 19.5411 8.62438 -0.334982 -1.24771 -1.82722
2104 3 1.73318 17.8467 8.66851 2.24318 1.43533 -3.34848
1203 1 -0.196435 19.5131 5.00363 5.46996 -7.81165 7.90338
2108 2 4.91651 17.8141 8.44513 -1.46488 -5.34249 2.42352
1208 3 5.00996 17.8047 5.17628 0.145552 -0.656364 -1.69367
1211 1 6.93076 19.5276 4.85604 -4.70943 -4.10582 0.400313
1268 2 5.24604 21.4675 4.90908 -4.84865 2.59847 -1.47415
2106 3 5.13562 19.6379 6.83649 -3.03864 2.53995 3.34989
2169 2 6.99031 21.4775 6.6376 7.27453 -9.25402 -4.35557
2168 1 5.24374 21.3382 8.53003 -2.72373 -1.74502 -3.83521
2110 1 8.52188 19.6044 6.76786 0.44981 4.79876 -4.07837
2172 2 8.41962 21.1094 8.59821 -2.47159 -0.277727 -4.37671
2116 1 12.3386 17.802 8.51659 4.53086 -4.25866 1.14697
1272 2 8.76311 21.1594 4.99518 -9.49578 3.05622 0.658136
1215 1 10.4517 19.5409 5.14714 -3.72722 0.764257 0.0270088
1276 3 12.1664 21.0866 4.84118 -6.6863 1.93746 -0.563623
2114 2 12.3554 19.4574 6.94606 -3.79399 5.27396 1.40784
2173 1 10.5002 21.3304 6.56392 2.82686 4.59022 -0.799943
2176 1 12.4734 21.347 8.49013 -1.94602 -1.20808 -0.679514
2115 2 10.5139 19.4501 8.30264 3.02091 3.28505 -4.31749
2112 1 8.80708 17.9045 8.67577 1.32603 1.76667 -3.11022
1220 1 16.2345 17.8716 4.84944 -4.21738 2.1746 -0.261344
1219 3 14.1683 19.4423 4.9893 -1.75453 -1.10107 -1.7737
1280 3 16.1226 21.3532 4.85662 -0.245388 1.60515 -3.2375
2118 1 15.847 19.3162 6.70176 -0.301027 -0.999856 7.86612
2177 2 13.9829 21.4217 6.49582 -0.123359 -3.84505 0.00810345
2180 1 15.8978 21.5225 8.50459 6.87497 10.0846 1.44965
2123 2 17.7216 19.3313 8.30583 3.26621 -3.44479 3.63159
2120 2 15.7122 18.0027 8.45158 -5.06805 -4.78606 -6.47603
2181 3 17.6452 21.4487 6.58678 -5.22916 -0.451869 6.76169
2119 3 14.1026 19.6339 8.61653 -3.57543 2.13852 -9.76091
1223 2 17.7562 19.7464 4.9836 -0.285206 11.0125 6.23738
1227 1 21.4041 19.3492 4.97461 -3.65632 7.34324 2.62947
1284 3 19.6764 21.2272 4.69533 -1.72746 -3.82507 4.35604
2122 1 19.49 19.502 6.69241 -3.89748 -0.642096 -6.63317
2185 2 21.1647 21.2401 6.65584 6.84091 6.38195 -3.05582
2184 3 19.6319 21.3609 8.52439 0.336884 5.54209 -7.47689
2127 3 21.0465 19.3115 8.29806 -3.59066 2.45684 -6.8232
2132 3 26.7311 17.7734 8.51723 -1.69965 5.75159 3.59692
2129 3 24.6661 17.8073 6.87552 -3.24939 -3.27426 -0.259398
1231 3 25.0008 19.7287 5.04478 -3.70679 2.62282 -2.12789
1288 3 22.951 21.4413 5.02057 0.71798 -3.34918 4.85055
2126 3 23.116 19.5956 6.79192 2.08535 4.15923 3.10668
2189 2 24.7143 21.3682 6.6529 3.76269 3.53828 0.875559
2131 3 24.9072 19.5816 8.66801 3.07376 -7.30725 6.07172
2188 2 22.8415 21.3011 8.45311 0.476818 -2.39376 0.768044
1292 1 26.7137 21.5102 4.97522 2.88131 1.2964 -0.718439
1232 3 26.6163 18.0526 4.88423 2.40932 -1.20794 -4.57233
2192 1 26.5463 21.3544 8.46176 -0.116266 1.28831 -0.940862
1323 1 -0.0763962 26.513 4.69192 2.11776 2.46639 0.232551
2221 2 -0.285331 24.9207 6.45639 -4.56403 -7.39586 -8.68309
1267 2 3.44808 22.8746 5.27643 1.94961 -0.564113 11.029
1324 2 1.67484 24.9625 5.18885 6.05917 4.41807 -3.76326
2162 1 1.46819 23.3512 6.79918 2.33413 -2.27035 -2.44948
2225 1 3.68581 24.8146 6.38422 -1.20046 -5.85089 3.12417
2167 2 3.32658 23.179 8.56 -6.33949 -5.79057 -4.86836
2224 1 1.55553 25.0278 8.58289 0.795927 -0.59558 3.36848