ITEM: TIMESTEP
42600
ITEM: NUMBER OF ATOMS
13500
ITEM: BOX BOUNDS pp pp pp
-2.9348978163498529e-01 5.3813489781631326e+01
-2.9348978163498529e-01 5.3813489781631326e+01
-2.9348978163498529e-01 5.3813489781631326e+01
ITEM: ATOMS id type x y z vx vy vz
7 3 3.14958 1.64027 1.42321 0.795413 0.0426153 6.06858
64 3 1.40564 3.57044 1.44581 -6.96822 -3.20057 -2.70731
902 3 1.38608 1.70505 3.28963 0.454454 5.65741 -1.12225
965 2 3.17647 3.48923 3.51783 -2.7459 -2.40777 7.26248
4 3 1.45612 -0.263976 1.63052 1.45922 -1.64871 1.6725
905 2 3.20495 -0.176848 3.47958 -2.15024 3.68113 4.26194
5 3 3.21226 -0.280006 -0.0263408 -3.45826 3.97023 3.4317
65 1 3.22328 3.20775 -0.276747 5.33578 -6.93924 6.68982
11 3 6.85293 1.64935 1.61893 0.364535 4.23823 1.55142
68 3 4.97026 3.37154 1.44267 0.981682 1.2106 -1.04696
906 3 4.87293 1.51798 3.36012 -3.75666 2.29904 -2.19294
969 1 6.82412 3.20976 3.44118 -2.82517 7.19438 3.87797
72 3 8.64218 3.12831 1.54945 3.94337 -8.19779 -4.46885
8 3 5.01159 -0.0922588 1.39052 3.25226 -2.41172 9.3111
909 2 6.78128 0.0220069 3.31391 4.23296 1.58025 1.30895
10 3 8.63174 1.41274 0.146723 -3.1455 -3.87673 -8.14222
910 3 8.87781 1.53087 3.37892 7.38664 -1.98144 0.130627
15 2 10.6199 1.55971 1.85302 1.60955 4.99098 -3.09377
76 2 12.0385 3.30077 1.3724 -2.27574 -3.0587 3.14161
914 1 12.179 1.3415 3.35964 3.17644 -8.01395 -7.32096
973 1 10.3291 3.62541 3.7031 -0.530495 4.82449 -5.19327
73 1 10.5873 3.23188 -0.126836 3.34596 -5.02126 0.769933
13 1 10.7778 -0.0443015 -0.282267 4.07822 1.34844 -0.14186
14 2 12.5255 1.23617 -0.281405 3.31607 0.831678 0.453234
19 2 14.0638 1.68384 1.38713 1.64708 5.57303 3.08334
80 1 15.7065 3.20706 1.55007 5.07514 0.896058 -5.29252
918 2 15.6669 1.3349 3.13513 -0.144287 1.28645 -0.20283
977 1 13.6272 3.21708 3.28642 0.276133 0.934049 0.122212
981 3 17.3839 3.28866 3.24521 6.90519 8.27194 9.44848
917 1 13.9924 -0.223504 3.1825 9.21334 -4.06208 8.5318
81 3 17.687 3.4232 -0.16912 2.2625 -0.221393 -5.83525
23 2 17.6217 1.37059 1.73775 10.8455 -6.34957 1.48768
20 1 15.9142 -0.228175 1.45255 4.44544 -2.26306 -4.19217
77 2 14.2286 3.65655 -0.228761 -2.94406 3.18152 -0.99519
21 1 17.6951 -0.260022 -0.171423 -2.71514 -0.0644236 3.62473
921 1 17.8141 -0.172853 3.40015 1.71049 -2.01154 -3.13168
27 2 21.2438 1.43819 1.50986 2.71421 1.88991 -1.78425
84 2 19.2117 3.23363 1.82584 6.21686 1.66136 1.57418
922 1 19.5857 1.31884 3.56417 2.44301 0.689233 -5.7508
985 1 21.5089 3.07255 3.32211 -4.08577 2.49767 -3.79143
22 3 19.4492 1.34957 0.0327449 0.0814358 0.845753 -5.66954
85 1 21.1484 3.16411 0.0249568 1.33588 -0.400605 3.45423
31 2 24.7942 1.36384 1.52321 -0.649338 1.85173 6.1983
88 1 23.1937 3.26664 1.35871 4.50105 -3.86137 -3.52344
926 3 23.1568 1.3651 3.586 -0.714578 2.80921 -5.70117
989 2 25.0596 3.38746 3.18592 0.499333 -2.63573 1.35987
92 1 26.6243 3.1928 1.46562 -0.971749 -0.628275 6.8041
930 3 26.5794 1.64779 3.4068 2.38053 2.80954 -5.03342
30 2 26.7403 1.32402 -0.0663231 -0.0565527 -4.08445 2.42013
29 1 24.8012 -0.254543 -0.0645981 3.74379 -1.52081 0.596292
26 2 23.1019 1.44453 -0.177724 4.23701 -2.94246 2.17744
929 1 25.0176 -0.267382 3.38935 3.73427 1.81985 -0.774193
67 1 3.39785 5.22333 1.4153 -1.50242 -1.14058 4.96185
124 2 1.54801 7.09578 1.53233 -7.46029 1.19501 -3.86781
962 3 1.75147 5.19886 3.28891 0.306641 2.88775 3.25031
1025 1 3.7864 7.15063 3.15889 3.0369 0.0345614 -6.27859
1021 1 -0.193238 6.48711 3.43629 -6.74604 -1.67057 3.93168
1022 2 1.66754 8.67092 3.27556 -6.60187 0.489039 1.16747
71 3 6.88048 5.22197 1.49181 0.813035 -7.13509 -4.00456
128 2 5.23341 6.878 1.25553 -1.15826 2.91317 -9.93587
966 3 5.142 4.94274 3.27519 1.9178 6.67569 10.5319
1029 1 6.77233 6.72278 3.64715 -5.15753 -5.01852 -5.31301
970 2 8.56287 4.9857 3.56141 -0.946562 -2.90724 -2.46266
132 2 8.42007 6.89315 1.57682 -2.70329 -9.64839 0.129944
1030 2 8.6271 8.52794 3.37125 -1.33304 2.76292 0.904663
75 1 10.2889 5.10963 1.61456 8.14827 -1.21413 3.6018
136 2 12.2659 6.99084 1.35116 0.25216 0.388769 1.57446
974 1 12.2543 5.27597 3.14321 -1.74322 -0.109541 -4.5424
1033 1 10.1309 6.71793 3.13227 6.32798 -4.01662 4.57758
1034 1 12.254 8.64689 3.34199 -2.25491 6.40753 4.29099
135 3 10.4259 8.58337 1.53754 4.40613 -2.6053 3.25019
133 3 10.365 6.75118 -0.145272 -1.89447 -5.51525 9.58022
79 1 13.93 5.03629 1.54472 3.97987 -6.66634 3.91721
140 3 15.9373 6.88125 1.6612 -1.85278 -4.96375 7.0239
978 2 15.739 5.08547 3.24075 -1.41743 4.84906 -0.783346
1037 2 14.0578 7.01469 3.24078 0.98838 -0.488115 2.79061
1041 2 17.4647 6.91743 3.45679 5.14541 11.6164 -3.83576
83 1 17.6571 5.19961 1.81437 -2.98152 2.2967 4.88042
78 2 15.9544 5.39164 -0.209788 4.80909 11.5205 2.80759
143 2 17.6167 8.55048 1.35997 -4.82416 -2.44675 1.64803
137 1 14.3173 6.98651 -0.244409 4.67723 2.88607 10.6643
141 1 17.8044 6.74617 -0.143379 0.407897 3.35161 2.67285
87 2 21.3217 4.91877 1.73158 -7.34096 3.77335 0.706605
144 3 19.5015 6.8907 1.55964 -0.708856 -3.64783 5.05033
982 3 19.4015 5.03559 3.48953 3.73546 -2.97924 -1.86278
1045 2 21.2911 6.92112 3.31994 -3.53468 -1.73499 -0.380074
145 1 20.9935 6.9479 -0.290248 -3.20641 -1.98161 -5.75533
82 3 19.6898 4.80545 0.0501987 2.43114 -0.526334 8.61273
1042 3 19.4265 8.67723 3.60057 1.88953 -3.6236 -1.01038
91 2 24.8997 4.73514 1.17507 1.98296 -0.282609 -3.32494
148 1 22.9326 6.77346 1.32188 3.81034 3.372 -1.16505
986 3 23.2596 4.92803 3.0777 -2.96625 -5.36443 -4.97453
1049 2 24.8641 6.76937 3.24494 -5.41008 5.48789 -6.67442
151 2 25.0056 8.5421 1.55979 5.89884 4.68846 -4.02847
149 3 24.9848 6.9101 -0.183531 -8.80131 6.13307 -4.41388
990 1 26.5841 5.05784 3.48486 1.5156 -3.72354 -0.0814499
123 1 -0.195502 8.75026 1.62494 3.4495 3.27912 -5.33191
127 1 3.39604 8.76806 1.23045 -1.35494 -2.28013 -0.0265723
184 1 1.48143 10.6537 1.45934 -4.79935 0.155383 -3.93811
187 2 3.09669 12.2842 1.27682 4.00818 0.163493 4.32664
1082 1 1.65567 12.4606 3.29178 -3.28536 8.84595 7.68873
1085 2 3.1645 10.5555 3.24204 5.40687 3.54915 5.00166
1081 2 0.0846177 10.5122 3.15269 3.00589 7.58827 -3.0043
183 3 -0.258465 12.4643 1.77445 12.4855 0.564296 -1.07568
1026 3 5.38162 8.92591 3.18947 -0.0917809 6.53963 -0.898211
131 3 7.09812 8.81065 1.54514 0.753907 1.34028 11.239
188 3 5.02581 10.7578 1.44287 -1.56792 1.81986 -3.0936
191 1 7.22591 12.3545 1.1971 -6.83141 -3.19009 -4.17583
1086 3 5.00348 12.1764 3.55639 4.15412 10.5938 1.98494
1089 3 6.99906 10.726 3.15754 3.8927 2.73371 0.581428
1090 3 8.90609 12.4297 3.07605 -0.237224 -2.5516 -8.79106
192 1 8.80876 10.342 1.25266 -7.18078 -6.79187 0.480478
195 1 10.3887 12.2277 1.26842 -2.49739 -0.922841 -1.90063
196 3 12.1549 10.6559 1.48313 -9.01281 -6.74837 -3.58738
1093 3 10.3298 10.4037 3.06375 4.51954 -0.794945 4.57079
1094 3 12.0943 12.3521 3.25084 3.28973 -3.51493 2.78702
1038 1 15.8395 8.78857 3.16601 -1.13117 0.955758 -1.89236
139 2 13.8481 8.88632 1.33567 -3.4342 0.120619 -4.52375
199 3 14.0645 12.2661 1.13695 2.33435 -7.97912 -5.68021
200 3 16.1126 10.6654 1.37488 0.72455 -11.6918 -5.22301
1097 3 14.3017 10.925 3.25784 0.650122 -0.638866 -1.44552
1098 2 16.1668 12.2796 3.42119 -4.36793 -5.26571 -0.664173
203 2 17.7407 12.2989 1.66154 1.03479 6.76305 -1.23089
1101 1 17.8289 10.3707 3.02978 0.971436 -3.99966 -4.16126
147 2 21.1708 9.01789 1.30947 4.10951 -8.88636 5.07776
204 2 19.5114 10.217 1.37921 1.30676 3.36184 0.45425
207 1 21.2534 12.1648 1.57286 -1.33861 -0.778539 -0.600444
1102 1 19.4229 12.0187 3.50833 0.976862 9.41737 -3.51606
1105 2 21.2756 10.3347 3.40889 -1.33997 0.114628 -1.46293
202 1 19.5409 12.3851 -0.208092 -2.52605 0.81258 7.94922
1046 1 22.8711 8.75097 3.01091 -0.120066 -5.32655 3.54297
212 1 26.7433 10.4693 1.79459 3.26704 2.92828 2.20113
208 1 23.1362 10.5291 1.29617 -0.442731 5.32379 0.301294
211 3 25.1006 12.2674 1.2497 -0.58436 2.88123 2.71935
1106 2 23.0986 12.1321 3.23997 -0.654136 4.9399 -1.33827
1109 2 24.7732 10.6375 3.10633 6.21657 0.550713 -12.5088
1110 3 26.7206 12.4026 3.27438 3.14744 -3.39411 -1.04208
206 2 23.2039 12.2381 -0.227809 -1.53628 -0.0580286 2.63201
244 2 1.23598 14.5312 1.39639 -2.17072 -5.28377 -4.6845
247 1 3.208 16.0102 1.35281 -1.35111 1.69473 -5.96375
1142 3 1.24599 15.8643 3.13386 -4.08098 -3.57376 1.12776
1145 1 3.13571 14.1603 3.08588 1.65854 -0.626047 6.98146
304 2 1.1957 17.6559 1.48712 4.06858 -1.43054 5.9845
248 3 4.97161 13.7479 1.69615 -0.142385 -0.154421 -0.215826
251 2 6.9278 15.6442 1.40675 -6.84356 0.649497 6.08993
1146 2 5.3395 15.8799 2.99752 -2.78469 4.33791 -4.81549
1149 2 7.14888 13.9546 3.19694 2.1268 -9.18518 -7.52719
308 1 5.06714 17.7093 1.35258 4.72678 -0.151518 2.94892
1150 1 8.57976 16.1576 3.45214 -2.09218 -0.323247 3.01687
246 2 5.34063 15.6401 -0.250177 1.90375 3.46762 2.94288
252 3 8.99665 14.3346 1.41385 0.373747 -3.52725 1.14153
255 2 10.5375 16.2037 1.51488 1.6755 5.96989 -2.22379
256 3 12.0927 14.166 1.2447 4.02184 -3.22412 -1.72844
1153 3 10.6179 14.5335 3.13618 -3.49526 -4.15299 -3.15371
1154 3 12.4586 16.2013 3.06213 4.07947 4.54459 -3.34977
259 2 14.2651 15.6539 1.51353 -10.7897 1.22932 -3.20634
260 1 15.8614 14.0911 1.6081 5.85539 -1.23354 -3.15116
1157 3 13.9618 13.9687 3.1137 5.71335 0.966758 3.75518
1158 2 15.8194 15.9695 3.13407 -2.11142 -2.53904 2.59527
1217 1 14.2791 17.7583 3.33533 -2.56728 9.06949 -0.993234
321 3 17.6847 17.6741 -0.124578 -1.06131 5.07295 -5.48147
258 2 15.9382 15.6352 -0.125663 1.21654 1.13627 0.302484
263 2 17.5108 16.0458 1.65899 -2.67515 0.421623 -4.49859
261 1 17.7741 13.9831 -0.117263 -3.33096 -5.88695 2.64798
1161 3 17.8737 14.0488 3.29059 -8.44232 -2.47892 -0.0651732
264 2 19.7592 13.7974 1.46164 -1.47704 -0.724473 -3.17199
267 3 21.1624 15.826 1.59327 5.46479 -5.31534 -3.11758
1162 3 19.4384 16.1074 3.36044 0.483962 -6.28834 2.54803
1165 1 21.1505 14.2726 3.40704 7.68454 -0.709262 -1.01664
325 3 21.3348 17.7419 -0.243015 -7.96944 5.29483 -2.8673
262 1 19.4594 16.0512 -0.14971 -9.71776 2.50953 0.21884
268 3 22.672 13.9625 1.36909 -7.01303 0.46354 2.03859
271 3 24.8184 15.8288 1.14882 -3.62399 6.54754 11.5858
1166 3 23.1355 15.7655 3.06171 -1.27615 -2.75866 4.47399
1169 1 24.6355 13.7348 3.32835 -5.67876 -2.59191 -3.4722
272 3 26.7247 14.1615 1.22949 4.07875 5.039 -1.15148
1170 1 26.5677 16.0459 3.59285 3.75512 -2.39675 2.17496
332 2 26.5909 17.2379 1.58046 3.66756 3.04458 4.12282
328 3 23.1277 17.5505 1.45153 1.5338 -0.803615 -5.65393
1205 2 3.06221 17.7834 3.21363 1.91366 -2.82549 -0.0139109
307 2 3.10511 19.1977 1.41369 4.85909 -1.04367 -0.740257
364 2 1.1881 21.454 1.60098 2.62609 -11.1997 -6.89451
1202 3 1.32612 19.3546 3.34854 -2.92322 -1.87595 0.441616
1265 1 3.27347 21.1387 3.13228 1.7431 5.73284 1.98508
365 3 3.20465 21.1959 -0.0506823 -2.45215 -6.30723 -1.797
302 1 1.29658 19.3984 -0.0615156 3.57309 -3.79474 -2.81191
1209 1 6.67826 17.7732 3.04016 0.338185 2.29283 5.27597
311 1 6.76037 19.6235 1.31428 -3.41904 -0.956306 5.11615
368 1 5.08759 21.1718 1.69842 -7.80304 2.32482 1.88141
1206 2 5.20696 19.4743 3.2704 -1.94141 -6.35027 2.74924
1269 3 6.79745 21.2444 3.55681 3.3332 6.863 -0.993548
1210 2 8.67696 19.6791 3.32896 -0.963721 3.96149 0.251464
306 2 4.97875 19.4277 -0.231448 1.05473 -2.42322 -0.726196
372 1 8.63021 21.1857 1.45126 -5.09447 1.55891 -0.308711
312 3 8.79042 17.737 1.39424 -3.32109 -3.19363 2.69047
1213 1 10.4694 18.0673 3.33855 5.14293 -2.01346 0.185965
316 3 12.3217 18.0957 1.60282 -4.63681 -0.571435 3.04457
315 1 10.3922 19.6289 1.37775 -0.118551 4.99726 -5.45161
376 1 12.1398 21.1302 1.54635 1.53923 5.83584 6.78976
1214 2 12.2845 19.3463 3.5557 4.91418 1.29857 1.41863
1273 1 10.2405 21.1878 3.28125 1.39627 -3.47577 -4.77608
310 2 8.79605 19.638 -0.256094 2.9336 -6.641 -1.79967
1221 1 17.4504 17.8602 3.08798 -4.09104 4.77779 -2.51648
320 1 15.6626 17.7656 1.37727 7.27264 -2.76894 -4.68933
319 2 14.2937 19.7205 1.41269 -2.57311 -9.31453 -3.85159
380 3 15.983 21.5669 1.72593 13.1056 -3.65625 -0.231101
1218 2 15.6184 19.5733 3.34292 1.51027 4.72349 5.28905
1277 2 14.0379 21.1335 3.22941 -4.47983 6.71117 -1.10091
323 3 17.7292 19.7918 1.5255 5.95886 -2.70446 -5.54412
377 1 13.4478 21.0419 -0.223738 -6.47498 1.33584 -2.53732
1281 1 17.7774 21.3748 3.18647 -2.24765 0.00574646 0.0452563
324 1 19.4745 17.8866 1.41329 -7.18869 4.96601 -3.80101
1225 3 21.2823 17.7726 3.20838 -2.13773 -6.32495 3.83694
327 3 21.1166 19.608 1.28652 -1.63937 -2.85661 -1.771
384 1 19.4871 21.3513 1.39178 -7.8736 0.270513 -0.988204
1222 2 19.4718 19.4782 3.03812 10.2544 -0.654162 -5.95944
1285 1 21.3225 21.5325 3.23799 5.16876 1.40251 -1.79359
322 2 19.3058 19.5772 -0.257173 3.43677 -4.92113 5.01936
1229 3 24.7575 17.7428 3.35503 2.33465 -7.20298 3.4811
331 3 24.7218 19.462 1.28145 -3.17503 1.80593 -0.335043
388 1 22.8823 21.679 1.27328 -0.81268 -1.5389 1.86721
1226 2 23.1362 19.5483 2.90056 3.57213 -5.17781 -2.83772
1289 1 24.643 21.5772 3.24686 2.91108 -1.02639 -3.6971
392 1 26.5753 21.4192 1.46812 -6.38261 5.78802 4.91117
367 3 3.4377 23.1 1.70968 -1.88774 1.09337 -0.932008
424 2 1.78296 24.6356 1.37347 -0.0298322 6.89582 -6.87474
1262 1 1.59728 22.94 3.27382 -0.354953 -3.22043 -2.94079
1325 1 3.32439 25.0275 3.39105 1.83369 -0.452147 -0.605952
421 3 -0.0733589 25.0294 -0.25229 -1.58971 -1.87723 -3.39797
1321 2 0.0589326 25.2413 3.16164 -3.83554 2.16739 -5.59946
422 3 1.61202 26.5701 -0.286037 0.0189879 0.838271 -2.33928
1322 2 1.50442 26.6571 3.14926 -4.36539 -3.93392 6.61133
431 2 6.73953 26.5629 1.30227 -0.810683 1.51279 -3.96442
1326 3 5.06092 26.5413 3.34828 -2.53461 4.34747 -2.00985
371 2 6.97638 23.0028 1.20572 -0.37331 9.83772 -8.70131
428 1 5.17048 24.623 1.5291 -3.09342 -2.15512 4.98406
1266 2 4.83952 23.113 3.5533 -1.98903 -4.85589 0.388586
1329 1 6.82025 24.4889 3.32107 5.40694 -9.30517 2.41966
1270 1 8.65409 22.8871 3.08836 3.77274 -0.724504 3.89574
432 2 8.51937 24.7768 1.19122 0.404944 -4.68119 5.42374
1330 2 8.39556 26.7491 3.33658 3.69255 2.77628 -1.7713
426 2 4.86519 26.7438 -0.121335 3.55463 -2.20263 1.13143
435 1 10.4756 26.5061 1.28828 7.20987 2.78102 3.43968
375 2 10.3756 23.0345 1.41991 -1.00589 -9.34545 2.00503
436 2 12.4482 25.0314 1.48873 3.70789 1.42519 1.31099
1274 3 12.1866 23.0392 3.18754 -0.330123 -2.81473 -4.13719
1333 3 10.1085 24.9949 3.09477 -5.46216 -2.0605 3.0836
434 1 12.529 26.7194 -0.238916 -2.65913 1.08519 0.636402
1334 2 12.2082 26.4345 3.04806 3.8154 5.59775 3.27637
374 1 12.2283 23.1694 -0.214266 3.11887 5.53448 2.82808
379 2 13.7731 22.8754 1.41311 1.61278 4.92906 -2.80261
440 1 16.1737 24.9101 1.38534 -1.19958 -4.25271 2.8158
1278 3 15.9474 23.1714 3.25843 -1.4407 -3.2858 -0.704412
1337 3 14.333 24.5435 3.37633 7.51049 -4.45416 0.650964
1341 3 17.4936 25.0695 3.23781 0.610254 2.30232 1.69145
437 3 14.2377 24.8865 -0.116549 2.62339 -1.09525 5.42515
1338 2 15.834 26.697 3.27289 -7.17286 -6.53344 5.95383
383 2 17.8833 23.1505 1.63642 -2.86348 -3.17712 -4.13948
387 3 21.2421 23.2778 1.65783 -1.5257 2.88007 -2.59284
444 1 19.549 25.0757 1.74745 3.51704 -6.88142 -0.910293
1282 2 19.5961 23.2117 3.11281 -5.78079 -0.351689 2.8706
1345 1 21.4307 25.1114 3.48896 1.38836 3.74941 -10.9281
382 1 19.3837 23.3436 -0.0605644 -1.70037 4.83994 -3.62089
445 2 21.1129 24.7755 -0.216306 -7.20636 -4.46421 -3.83812
441 2 17.8989 25.1456 -0.293722 2.76446 -1.37292 -2.28528
447 1 21.1973 26.6928 1.69151 -0.388805 -1.89668 3.20289
452 1 26.7349 25.0572 1.35148 -1.89239 -1.23558 1.83849
391 2 24.8447 23.1667 1.50836 2.63484 6.426 2.4944
448 1 23.1244 25.1552 1.26516 2.45023 3.01206 7.60212
1286 3 23.1434 23.2749 3.29046 -5.24454 2.50858 2.2693
1349 3 25.0448 25.0393 3.17875 0.2122 0.488993 -4.82197
451 1 24.9865 26.7581 1.2697 -5.8225 1.78663 2.67568
1346 2 23.2946 26.3312 3.5539 -4.02794 -3.4286 -9.0901
907 3 3.14158 1.3971 5.09289 -4.79278 -2.84484 5.18437
964 3 1.38138 3.33606 5.06596 -0.456672 -6.56341 0.0482651
1802 3 1.62532 1.55837 7.39087 -5.72663 -0.774829 5.88345
1865 3 3.34923 3.17632 7.02691 1.01083 0.646255 0.251144
903 2 -0.257861 1.26977 5.09797 0.169809 2.78399 12.8982
911 3 6.9476 1.58195 5.13779 -4.23986 0.217215 -4.05771
968 3 4.98291 3.20149 5.2355 3.65196 2.73297 -7.10925
1806 2 5.03684 1.60514 7.06014 -3.44805 -3.25357 -1.24634
1869 3 6.90972 3.19921 7.02393 7.78943 -1.9374 -0.973439
1809 3 6.80406 -0.0530427 6.86839 3.39472 5.21344 -0.883056
1810 2 8.58877 1.38335 7.17166 -1.56356 -2.82248 -1.14324
908 1 4.97639 -0.0288777 5.20529 6.2664 4.57075 -3.74148
912 3 8.64914 -0.17243 5.17241 1.46043 2.67655 -1.58738
916 3 12.2695 -0.165464 5.06516 -1.98014 -4.60641 -0.222016
972 2 8.91039 3.34705 5.40542 -2.71812 1.97719 -1.61979
915 3 10.5389 1.17037 5.20385 0.87075 3.06117 -1.58267
976 2 12.1058 3.27224 5.17165 -3.31906 -0.298684 1.45835
1814 3 12.3737 1.4414 6.95047 4.19769 1.66399 3.35565
1873 1 10.5444 3.20035 6.97134 -4.90056 5.84903 2.43188
1813 3 10.4292 -0.249844 7.01996 3.64515 2.00998 -3.7249
1820 3 16.1179 -0.28812 8.71152 -1.4976 0.0362136 2.14338
919 2 14.288 1.45762 5.16502 1.75994 -0.586402 3.5482
980 3 15.8637 3.1635 5.05807 1.11245 4.38715 -2.37912
1818 1 15.7582 1.4927 6.89845 -1.18613 1.20735 -1.15905
1877 1 14.0556 3.3149 6.64624 0.0475182 -0.999751 -1.19923
1881 3 17.5258 3.19492 6.89084 0.965927 3.48502 4.24183
920 2 15.6881 -0.3106 5.06546 4.12055 -9.66169 -8.36313
923 1 17.5705 1.58215 4.94864 -3.62952 -1.3607 -6.35723
927 1 21.533 1.18239 5.27963 -3.22089 1.32398 0.579829
984 2 19.7516 2.92907 4.998 3.8887 -9.09775 -2.61307
1822 3 19.2816 1.56717 7.05748 3.55839 -5.62607 -1.92269
1885 3 21.1859 3.19246 6.93157 -2.99543 2.19878 7.96444
924 2 19.8289 -0.186123 5.20765 0.0177778 -1.90705 1.01062
931 2 24.9055 1.36873 5.31552 -3.1059 -3.25267 -9.14084
988 3 23.3225 2.97183 5.68632 2.81904 0.969149 -1.36573
1826 1 23.0764 1.37387 7.63922 2.19258 3.22402 3.64452
1889 3 24.9578 3.23739 7.19802 -3.50797 -2.83536 5.03532
992 3 26.6967 3.33598 5.17791 9.30972 -4.30097 2.67332
1888 3 22.9745 3.56037 8.72646 -4.06716 0.146305 8.27143
1829 1 25.2159 -0.0820051 7.09062 -0.910031 -1.93795 -3.15577
1830 1 26.6849 1.6447 6.88709 -1.11358 -1.41251 -1.78374
967 3 3.61019 5.36765 5.06143 4.58458 1.58845 -1.05156
1024 1 1.33992 6.94609 5.21614 -10.2168 -1.01749 6.62579
1862 2 1.20982 4.9545 6.91324 5.09204 -0.261107 -6.11068
1925 2 3.2487 7.14879 6.96022 -5.38909 1.88323 2.72295
1922 1 1.34102 8.65209 6.9861 -7.59252 6.57223 -4.97485
1867 1 2.99577 5.24352 8.49545 -0.839952 -6.85396 -3.93944
1023 2 -0.00974212 8.59372 4.83696 6.16331 -2.03774 3.07827
971 2 6.71595 4.95434 5.01086 4.79766 -0.968539 5.64459
1028 1 5.11537 6.99085 5.18906 -3.73813 -6.04498 -4.23714
1866 3 5.08969 4.84387 6.77217 -1.88092 -6.94249 4.01094
1929 2 6.91058 6.7488 6.80648 0.329784 -1.74423 3.19428
1930 2 8.41232 8.66185 7.0808 2.14382 5.30734 -2.38216
1926 2 5.02584 8.52275 6.80264 -3.36927 1.53649 14.4049
1931 1 6.68131 8.71309 8.59485 -0.918259 2.34063 -2.86859
1928 1 5.00297 6.76813 8.71527 2.59896 -4.05698 -1.4328
1032 3 8.95112 6.82883 5.33216 4.39802 -3.90474 -0.977579
1870 1 8.82999 5.07429 6.95312 -0.489914 0.623362 1.72925
975 2 10.7326 5.10015 5.40238 -4.07957 2.96582 2.14911
1036 3 12.4384 6.87626 5.03215 4.77083 1.35689 3.40265
1874 1 12.3731 5.04059 7.1432 -4.54622 -1.90986 2.56252
1933 2 10.5089 7.03104 6.97873 4.64048 2.47731 -5.50916
1035 2 10.6444 8.51587 5.02275 -5.65426 -1.14055 -0.66485
1935 1 10.3437 8.37692 8.63387 1.11109 2.43496 0.000917041
979 2 13.926 5.04523 5.04118 -2.4614 -5.48479 -1.58542
1040 1 15.6377 6.92984 4.90081 -0.842791 1.487 10.5162
1878 3 15.8449 5.27039 6.75844 -0.231513 -4.56676 4.20007
1937 3 14.2909 6.84717 7.08404 -7.09507 -4.76344 2.17698
1941 3 17.5901 6.99214 6.72799 2.16708 -0.784896 3.7365
983 1 17.5899 5.14411 4.80514 0.124638 -8.98388 4.04241
1883 3 17.6693 4.99233 8.62821 8.65211 -2.93839 -2.49537
1043 2 17.7441 8.57868 5.11008 2.33186 0.916955 0.949666
1940 2 15.8589 7.08129 8.64803 -4.95457 2.48851 0.873681
987 3 21.3644 4.90377 4.98939 -0.242749 -4.88222 3.61268
1044 2 19.451 6.72779 5.15045 5.30562 0.850628 -0.977082
1882 1 19.6764 5.04312 6.74076 0.789312 -5.52871 2.35783
1945 2 21.6678 6.76775 6.71584 3.04553 -0.216016 -1.38944
1942 1 19.7118 8.53601 6.8569 -4.20988 0.101771 -1.02107
1047 1 21.2896 8.6488 5.01469 0.59112 -1.83831 -0.559734
1887 2 21.193 5.11846 8.61766 -4.74276 2.94854 -0.192578
1943 3 17.7991 8.58202 8.67172 -1.51487 1.20468 -7.95537
991 3 24.7425 4.92729 5.41505 2.33265 2.42075 0.150392
1048 1 23.1972 6.83423 4.83784 1.98436 -1.26723 8.64508
1886 3 23.1339 5.03004 7.02915 4.58757 5.67253 2.31613
1949 2 24.916 7.0499 6.61156 4.5921 -6.11626 -5.05703
1946 1 22.9597 8.68666 6.81596 -0.216125 2.72866 5.17497
1952 3 26.6326 6.94194 8.50065 2.72862 -3.74938 1.48329
1051 1 25.0061 8.71181 4.60872 2.57057 0.774823 -3.70018
1948 1 23.0139 7.01936 8.65506 0.442075 2.52235 -1.42351
1950 1 26.6083 8.61531 6.69927 2.60603 8.12978 6.62562
1951 1 24.8623 8.47107 8.46739 5.70643 -3.37288 0.504389
1890 1 26.7329 5.09961 7.07655 -0.924174 8.72724 5.25
1891 3 24.972 5.14138 8.71231 5.59274 -1.42949 -1.86862
1027 2 3.17901 8.94147 5.31131 -0.0532736 3.37529 -1.16083
1084 1 1.6542 10.585 5.21045 4.49798 -0.0651237 3.61728
1087 1 3.30191 12.3434 5.3255 2.78304 -2.31923 -6.33087
1982 3 1.25899 12.478 6.76099 -12.1438 -0.775308 -5.02722
1985 3 3.23429 10.5285 7.04524 0.523612 9.23541 -1.02931
1083 2 -0.0530859 12.281 4.85088 -1.46964 -4.5475 -1.73647
1987 2 3.2609 12.3291 8.52426 4.30763 3.57762 7.37117
1031 2 6.83426 8.87672 5.23826 -2.52556 8.56668 0.113565
1088 2 5.16087 10.5429 5.06122 -0.844842 -9.73366 -2.0609
1091 3 7.01497 12.5629 4.76624 2.57951 5.97167 -0.991139
1986 1 5.22149 12.4287 7.00078 -5.61662 1.93716 2.37387
1989 1 6.62771 10.5711 6.86118 -9.85886 0.544524 -6.52611
1990 1 8.52727 12.4356 6.84637 2.25794 2.446 1.68831
1991 2 6.66139 12.7059 8.668 6.7318 0.195957 0.760461
1934 3 12.319 8.74639 7.12716 -1.17064 0.116554 -10.9654
1092 3 8.90967 10.2879 5.22633 -1.39526 -0.0890183 -2.95864
1095 3 10.3153 12.3217 5.08156 5.92809 -1.41735 -4.1053
1096 3 12.4459 10.6063 4.90921 4.49175 -1.96113 -1.82056
1993 3 10.1951 10.6687 6.97725 -2.0603 7.6541 2.23699
1994 1 12.2105 12.2135 6.92868 -4.53784 3.44104 -5.07395
1995 2 10.4156 12.1352 8.61034 -1.43082 0.154874 2.39875
1996 2 12.261 10.6652 8.49379 -0.558572 -4.29917 -6.78941
1039 2 13.9965 8.94459 4.82309 4.19894 9.30482 0.40305
1938 1 15.7444 8.79624 6.80341 -4.1121 2.5895 -0.314005
1099 3 14.0853 12.5459 5.20828 -6.16759 11.752 -5.60874
1100 3 15.9189 10.5359 5.1906 4.01253 -1.67239 3.08236
1997 1 13.9755 10.6238 6.76169 2.55447 -2.37559 -2.76824
1998 2 15.7843 12.3009 6.95814 5.42313 -6.556 3.32258
2000 2 16.0756 10.454 8.68947 2.49931 -0.13756 4.54505
2001 1 17.6618 10.4263 6.92083 -1.07706 -1.90311 4.31763
1103 3 17.5679 12.1412 5.37504 -4.08818 4.06924 7.90987
1939 2 14.1 8.72303 8.71067 -3.63109 -5.64949 -0.84169
2003 1 17.8372 12.1213 8.6611 -9.68872 4.74123 0.30985
1104 2 19.3598 10.5114 5.34631 5.39722 2.52208 5.99042
1107 3 21.3991 12.4026 5.11596 3.36916 -4.17069 4.51454
2002 1 19.5972 12.2819 6.954 -3.34787 -2.97098 -1.86675
2005 3 21.4107 10.7958 6.55834 0.200812 1.67134 -0.507579
2004 2 19.5352 10.5353 8.54309 -2.59238 3.31047 1.69978
1947 2 21.1275 8.91187 8.57332 -2.87319 0.227403 -3.8293
1108 3 23.1445 10.4242 4.88829 2.43249 1.13688 3.05829
1111 1 24.6569 12.0182 5.0697 1.93604 -2.23849 -2.37428
2006 2 23.111 12.4686 6.80743 -0.83168 0.102557 0.264991
2009 2 24.8197 9.97869 6.76885 3.46015 2.30421 5.33502
1112 1 26.6733 10.3312 4.97311 0.386204 1.81921 2.59175
2012 1 26.6703 10.31 8.35099 1.4252 2.6141 5.27251
2008 1 23.1574 10.5232 8.53464 -6.26367 -5.64431 -0.756885
2011 1 25.0051 12.153 8.45832 -2.60714 -0.163968 0.664919
2010 2 26.4298 11.9521 6.61727 -5.28772 1.87641 -11.9283
1144 2 1.39192 14.1383 4.95222 -7.9844 -6.93144 -5.29372
1147 1 3.40635 15.8789 4.5333 -0.199629 -4.29253 -4.51701
2042 3 1.15793 15.7612 6.93143 4.53227 8.04278 4.82859
2045 2 2.88397 14.4032 6.61564 -5.93384 -4.05793 3.2923
1204 1 1.33308 17.352 5.04804 5.04107 6.75065 -1.33569
2105 1 3.08512 17.5476 6.85693 6.44395 -4.84169 6.31759
2101 2 -0.1977 17.5893 6.66524 1.46684 -1.42724 0.759613
2044 3 1.41473 13.9773 8.67191 6.1859 -6.98403 -3.18394
1148 3 4.95727 14.2258 4.89668 -6.81446 0.00810596 2.79681
1151 1 6.77012 16.009 4.85131 1.99501 1.7662 -2.84085
2046 2 4.97231 16.1391 6.81125 0.545225 2.0469 -5.29147
2049 2 6.61235 14.3233 6.74842 -3.35518 3.85435 -0.552246
2109 1 6.73615 17.5286 6.82063 2.59167 3.99271 1.27553
2048 1 4.70839 14.2708 8.33634 0.280272 1.33541 -3.9732
1208 2 5.02629 17.5901 4.88019 1.48085 -2.54767 5.45848
2051 3 6.55558 15.7743 8.56844 4.53292 4.95331 -3.63012
1152 3 8.66355 14.2725 5.00707 -4.11808 1.27497 2.68421
2050 3 8.8518 16.1009 6.75545 -0.157707 1.00313 1.19211
2052 2 8.78331 14.2095 8.58848 2.00758 6.47147 -6.39798
1155 3 10.6294 16.2538 4.82728 -0.944457 -0.454429 -0.442578
1156 2 12.2272 14.0755 5.05992 5.26785 0.0774657 2.33701
2053 2 10.6272 14.2636 7.0337 1.33352 5.00632 2.22716
2054 3 12.4646 16.0565 6.68382 5.78649 1.86335 -3.29188
2055 1 10.6578 16.0606 8.56568 -4.19494 -6.10269 8.26596
2056 1 12.5673 14.3603 8.49872 -6.49753 -2.47327 2.13007
2113 3 10.5567 17.7338 6.77827 -4.80901 2.08381 1.47374
1159 3 14.0286 15.7284 4.91972 4.78661 5.90124 -1.21495
1160 1 15.8201 14.1986 5.3424 7.82616 1.2381 -1.05454
2057 2 13.8755 14.1743 6.73793 -4.15624 2.19898 -8.37794
2058 1 15.8373 15.8078 7.27071 3.13066 3.03674 8.06162
2063 2 17.6958 15.8687 8.55394 0.56961 -2.77089 6.52414
1163 2 17.5987 16.0159 5.12991 2.00702 1.64002 0.603774
2061 1 17.8177 14.1406 7.19538 0.407356 0.467267 -2.52219
1164 2 19.3817 14.1088 5.21603 4.05401 2.63174 4.99235
1167 1 20.9945 15.9035 4.95492 -4.61705 -3.06766 -1.05239
2062 2 19.8501 15.9746 6.96727 -6.05859 -3.30834 -2.50565
2065 1 21.3616 14.2112 6.96237 -0.858307 2.25023 -0.432043
1224 1 19.1362 17.7208 4.98139 3.30574 -0.641232 -0.978989
1172 2 26.434 14.1086 4.71827 -3.58695 3.89416 7.1601
1168 1 22.9854 14.2534 5.10719 2.88219 2.53694 0.216461
1171 2 24.7202 15.7631 4.98875 0.776509 -4.48864 -2.04788
2066 1 22.8947 16.1017 6.85787 3.00951 -4.49241 4.63769
2069 2 24.9422 14.0656 6.6379 1.03475 -4.1625 -6.18081
2070 1 26.5778 15.9901 6.84076 4.03135 -7.30444 8.67166
2068 1 23.333 14.257 8.53738 -7.03205 -2.6614 5.95438
2071 2 24.8785 16.0227 8.32426 -3.24137 -6.32919 3.15263
1228 3 22.9989 17.7075 4.79145 -0.479631 3.47756 -3.59776
1207 3 3.13629 19.4636 4.97247 -0.481691 6.34175 4.33414
1264 2 1.39164 21.076 5.37369 -2.91134 -4.36661 -0.933723
2102 2 1.57693 19.4622 6.98091 10.3891 -1.26632 8.02081
2165 1 3.1795 21.203 6.72822 3.93297 -6.93285 3.22559
2107 2 2.94809 19.6864 8.69299 2.03585 5.89736 0.83025
2103 2 -0.256246 19.552 8.71325 -0.875881 -15.3697 1.12303
2164 1 1.395 21.4587 8.59613 -2.75126 -5.7495 -0.76882
1203 1 -0.225717 19.4764 5.12473 5.18384 -3.33081 -2.95679
1212 2 8.25254 18.0224 5.14174 2.38772 1.40026 -3.80938
1211 1 6.65306 19.561 5.11857 -1.52809 3.00206 8.91105
1268 1 5.09525 21.2073 5.07871 7.49987 -0.806167 -2.81412
2106 2 4.75316 19.0482 6.7669 -1.84041 -3.86062 1.48197
2169 2 6.78968 21.2123 7.06708 -2.73118 -10.7617 -3.11135
2110 3 8.64043 19.6532 6.87467 -0.776181 9.56572 -1.0912
1272 3 8.52949 21.4324 5.24146 6.35419 -2.92337 1.77431
2112 3 8.73274 17.8038 8.5941 0.325039 4.28368 4.51708
1216 2 12.5617 17.854 5.17719 -3.08015 3.7325 -1.60876
1215 3 10.4114 19.6015 5.28981 -0.830776 -0.225108 5.25056
1276 3 12.1138 21.1504 5.00051 1.20233 0.757722 -6.01145
2114 3 12.0571 19.5389 6.96863 -5.19007 4.65563 1.7308
2173 3 10.3701 21.3906 6.86732 -4.41129 3.45082 9.32961
2115 3 10.2935 19.5275 8.60866 -0.804128 0.279015 3.88918
2176 3 12.2663 21.5162 8.58266 5.73358 -3.30867 1.86736
2116 1 12.3718 17.8193 8.57526 2.25233 -1.72167 -10.8894
1220 2 15.5811 17.8834 5.17004 -2.33695 9.47883 2.88309
2121 1 17.4761 17.9502 6.67553 -1.63685 0.688079 2.50952
2117 2 14.3576 17.8115 7.1525 2.9787 -3.79975 -0.701361
1219 1 13.91 19.772 5.156 0.158878 -0.0317331 3.77002
1280 3 15.7927 21.4788 5.07402 0.211655 -0.00978137 2.38412
2118 3 15.8152 19.6245 6.91307 -1.99024 2.27567 2.87051
2177 1 13.9303 21.3247 6.91728 -1.20966 1.46546 -4.55044
1223 1 17.7366 19.4046 4.72603 1.18232 2.92991 -11.4001
2181 2 17.6773 21.2363 6.72215 -3.23119 4.10451 -6.7994
2125 2 21.1532 17.7729 6.35155 0.0619919 -0.961347 -4.34071
1227 1 21.4 19.7214 4.79555 -9.2857 -1.61645 -1.83877
1284 3 19.534 21.2196 4.85988 2.8733 -1.92218 -7.75128
2122 2 19.6033 19.5961 6.75247 1.64315 -1.35998 -0.0213593
2185 1 21.1152 21.7057 6.77315 -1.4473 -0.700003 -6.90953
2184 1 19.2315 21.3561 8.70344 -1.38619 -2.68198 0.0277738
2127 2 21.4838 19.2272 8.51473 4.03593 3.1633 3.00914
2124 1 19.5125 17.792 8.50504 3.84569 -6.98468 4.94833
2192 2 26.6798 21.1351 8.68826 -2.96187 -4.50112 1.89285
2128 1 23.432 17.9504 8.61676 4.19945 5.46463 1.40549
2132 1 26.5371 18.0288 8.64736 0.40381 3.45352 2.86481
2129 2 24.9773 17.8902 6.79828 -3.10255 -0.338572 -9.02181
1231 1 24.7272 19.8862 4.77938 0.384482 -0.037156 7.34425
1288 2 23.021 21.6796 5.21491 -3.87029 -0.284168 0.860336
2126 3 22.9344 19.7371 6.52692 -8.66175 -6.0206 -2.51216
2189 1 25.1615 21.322 6.57768 -6.70121 -2.20738 -3.50104
2131 2 24.879 19.6748 8.54946 -5.58112 -4.4355 4.62722
1232 2 26.6873 17.9629 4.86766 2.50075 0.756351 -2.95936
2188 3 22.8678 21.1378 8.2887 0.174642 -3.29423 -2.81015
1267 3 3.17218 22.9769 5.31544 -2.91682 3.96538 -0.297204
1324 2 1.41494 24.7165 4.81198 -2.63553 -7.48293 7.05929
2162 1 1.35618 22.7702 6.79909 -1.781 4.15539 1.75372
2225 3 3.01078 25.1251 6.85873 -3.91733 9.78068 -0.0665373
2223 3 0.0552065 26.6915 8.6184 -2.70143 7.09725 -2.15108
2167 2 3.21865 22.8185 8.56388 0.814184 3.70973 -1.48237
1263 3 -0.15383 23.1468 4.95567 -0.956229 -5.87404 1.6761
1327 1 3.16374 26.5886 5.02511 0.25846 -2.95133 2.67216
2163 2 -0.246296 23.1237 8.38521 0.744765 -6.40114 3.94119
2227 2 2.97901 26.5257 8.69545 1.84247 -7.46686 -3.90113
2222 3 1.34396 26.7289 6.5389 -0.621192 -9.6994 0.643493
1331 3 6.90561 26.5062 5.2754 9.25977 -0.665986 0.414862
2226 3 5.03804 26.6818 7.05103 -4.36906 -0.617482 0.729273
2166 3 5.03611 22.9919 6.78013 -6.89848 2.22221 3.23555
1271 3 6.928 23.171 5.37277 6.78155 0.764637 1.94756