ITEM: TIMESTEP
17400
ITEM: NUMBER OF ATOMS
13500
ITEM: BOX BOUNDS pp pp pp
-5.2859366007854902e-02 5.3572859366005581e+01
-5.2859366007854902e-02 5.3572859366005581e+01
-5.2859366007854902e-02 5.3572859366005581e+01
ITEM: ATOMS id type x y z vx vy vz
7 3 3.54045 1.9032 1.70889 1.31065 3.93523 -1.96989
64 3 1.68354 3.50018 1.80183 2.18271 1.79393 -0.394743
902 2 1.73093 1.77862 3.45108 -1.11634 1.96304 -1.15736
965 3 3.62113 3.59534 3.52124 5.11346 -0.844187 -2.39716
2 3 1.57783 1.63441 0.0332572 2.29132 0.878808 -1.84486
905 1 3.45438 0.0046004 3.34556 -0.0823806 5.39128 -2.37212
11 1 7.19021 1.74854 1.75062 -6.16063 -3.96193 -0.603969
68 3 5.27115 3.51637 1.85408 -2.53719 0.321818 -0.236354
906 2 5.40421 1.71107 3.54667 3.8879 -0.737399 1.67415
969 3 7.17186 3.41138 3.49054 0.249083 -1.09743 1.40978
8 1 5.38978 0.14951 1.48319 -5.3986 -1.06571 -0.00830818
69 2 7.18533 3.65972 0.0198444 -1.71839 1.83458 -2.51256
910 1 8.88604 1.70135 3.69073 -1.67421 2.01 3.09868
72 2 8.94245 3.50138 1.72207 -3.56344 -3.09091 -3.9876
15 1 10.6148 1.65658 1.79042 8.98245 -0.888046 4.42117
76 2 12.4244 3.42086 1.77086 -0.607987 -2.48355 0.830548
914 1 12.4008 1.75652 3.28479 1.52953 -1.14598 -3.84544
973 1 10.608 3.68697 3.47486 1.27431 -0.608974 3.63758
14 2 12.567 1.59255 0.0864371 -0.748527 1.05031 -1.18977
16 1 12.4815 -0.0366273 1.65907 -0.771573 -0.702635 4.2544
73 1 10.6918 3.4571 -0.0390997 2.21219 -1.06714 -0.150287
913 2 10.6099 -0.00805214 3.56254 -6.38024 1.30349 4.56672
19 1 14.3372 1.93127 1.72036 1.66288 -0.123395 1.21256
80 1 16.1673 3.61278 1.69164 -0.545195 1.74468 -3.44312
918 2 16.1279 1.67719 3.43364 0.804057 -3.32066 -1.71815
977 1 14.3087 3.50537 3.52845 2.21784 -0.474327 2.5161
77 3 14.3916 3.67005 0.0264612 1.21686 -0.528704 -1.85044
23 2 17.772 1.75661 1.88188 0.231443 1.63318 1.15389
981 1 17.8645 3.38458 3.71916 -3.75894 -0.783401 -1.7547
27 1 21.4209 1.66609 1.54395 2.71303 -0.255441 2.53555
84 1 19.509 3.59189 1.73932 -1.30341 1.27071 -1.25641
922 3 19.8275 1.71936 3.67391 3.77032 -0.454765 3.52398
985 3 21.5284 3.68169 3.47189 -1.69287 0.907277 1.64254
925 2 21.5435 0.00281027 3.40258 2.03161 -3.35182 -1.20056
85 3 21.3531 3.615 0.0843824 -0.912789 0.971354 -2.03559
22 2 19.5696 1.63854 0.136647 -0.511646 -2.63997 -1.3392
31 2 25.1486 1.71093 1.77 -0.201081 2.85714 -2.95275
88 3 23.1682 3.42654 1.78393 -1.70128 -2.79061 0.270582
926 1 23.2384 1.65952 3.3646 -1.56381 0.385505 -1.48938
989 3 25.0209 3.61852 3.43806 -0.596509 -1.316 5.30573
29 2 25.0028 -0.0275033 0.0995671 0.309565 0.502893 -1.27385
930 2 26.7279 1.74086 3.52235 -1.58031 2.53706 -1.57199
67 3 3.43371 5.37155 1.81772 0.999228 -1.89944 4.77813
124 1 1.57309 6.88425 1.83373 4.72861 3.74399 -1.97029
962 3 1.80363 5.17696 3.57252 -2.20766 4.70911 0.226318
1025 2 3.64453 7.1156 3.42817 0.471767 -4.37455 1.38885
62 2 1.58469 5.36597 0.0339195 4.2133 -3.62651 2.36299
1022 3 1.74538 8.82376 3.56983 -5.22536 4.71188 1.87456
122 1 1.68093 8.67118 0.0463766 2.60361 -1.60799 -1.94953
127 2 3.50528 8.79482 1.77087 3.05988 1.98722 -0.712624
63 1 0.00166107 5.26974 1.82122 -1.08004 2.40486 -0.278895
71 1 6.9608 5.24985 1.74043 1.00819 -1.39291 -4.3814
128 1 5.14523 7.10365 1.68278 2.91847 0.140032 -0.307719
966 3 5.29781 5.27735 3.51127 2.54947 0.34315 1.49109
1029 3 6.95346 7.15461 3.45467 2.31352 0.714382 -3.26534
129 1 6.69751 6.9097 0.00887822 0.119476 -0.328623 0.850647
132 3 8.70523 6.99023 1.71542 -0.183059 3.99876 -2.53598
66 2 5.20785 5.18372 0.177799 3.49278 -1.14808 1.83241
970 2 8.8748 5.37855 3.5619 -1.79008 0.642693 0.883553
130 3 8.74575 8.65832 -0.0440749 4.03419 5.09441 1.77258
1030 3 8.94189 8.8471 3.67115 4.9523 0.216536 -1.90912
75 3 10.7169 5.26204 1.64695 0.961985 -2.45376 -1.46793
136 3 12.3948 7.19965 1.69808 2.11355 1.95115 -2.7061
974 1 12.5451 5.32029 3.54651 2.15524 -4.68952 2.51524
1033 2 10.6556 7.15175 3.23731 -3.80708 3.86989 1.67173
133 2 10.6303 7.00969 -0.0171639 -3.33791 -3.29011 -1.74814
74 3 12.5063 5.28259 0.0020516 1.26344 6.89318 -2.27394
135 1 10.4357 8.82601 1.68233 0.205897 4.56015 2.11087
79 1 14.2209 5.40311 1.83255 -0.771837 3.71357 -2.04737
140 1 15.9458 7.14106 1.8757 -0.370831 2.0883 1.97635
978 2 16.0065 5.27416 3.47934 -3.5241 -6.53176 -2.93334
1037 3 14.0603 7.16671 3.31355 -0.239378 2.5738 4.75453
78 1 16.1549 5.39713 -0.0419992 0.688903 -2.16217 -0.352921
141 1 17.7179 7.19839 0.113844 -3.48241 2.26626 1.55939
83 2 17.7568 5.34816 1.87021 -2.87637 0.846285 -0.268372
1038 2 15.9805 8.86589 3.53314 5.57201 -1.80931 -3.67291
1041 1 17.8894 7.1244 3.65291 2.74565 -1.08104 2.65178
87 1 21.2505 5.57942 1.78876 -2.12416 1.45681 2.73084
144 1 19.5813 7.26577 1.90814 -1.11888 -0.866157 -1.45479
982 2 19.5925 5.32998 3.57881 -3.26239 -1.72219 2.31334
1045 1 21.3967 7.18235 3.58221 -2.18704 0.998222 -0.25655
145 2 21.1724 7.26512 0.0748272 -0.363245 1.27717 -0.798829
82 2 19.5625 5.42789 0.0479959 -0.749922 -1.2069 -0.39799
91 3 24.9214 5.30402 1.47941 -3.63697 -3.22578 -1.77024
148 2 23.1359 7.2081 1.76369 1.84552 -1.35283 0.348906
986 3 23.1703 5.3994 3.58556 1.75301 3.80516 -5.58626
1049 1 24.7952 7.01029 3.66904 5.76471 -0.234999 -2.3124
151 3 24.9795 8.82556 1.71379 0.231012 -1.40064 0.208089
990 1 26.7533 5.48236 3.4532 3.76146 -3.87136 2.66386
1046 1 23.2029 8.7627 3.5181 3.53024 5.77069 1.62965
86 3 23.1661 5.40413 0.0244656 -0.427859 -0.511262 -0.132043
146 3 23.2392 8.80188 -0.0371024 1.11385 -3.19884 0.29742
149 3 24.9403 7.0208 0.0651768 -4.35786 3.01792 0.623319
152 3 26.6713 6.95779 1.7229 -2.83522 4.04631 -4.52956
123 2 0.0817221 9.03624 1.83198 1.42423 0.671459 2.55999
184 2 1.79119 10.7295 1.67679 -2.37608 -2.35139 4.94221
187 2 3.46813 12.3579 1.7312 -0.184053 2.67018 -3.59366
1082 1 1.76486 12.3301 3.59533 -3.2891 -1.0583 -1.33961
1085 1 3.50487 10.5684 3.47512 -0.212299 -2.67595 0.596963
183 3 0.0660025 12.5657 1.62911 -0.0410204 3.76935 1.3403
1081 1 -0.00926583 10.7434 3.51303 3.67026 -2.77071 1.04975
1026 3 5.47197 9.0037 3.56261 1.18655 -0.810077 1.37234
131 2 7.04541 8.98729 1.5717 4.61046 -4.34132 5.11954
188 1 5.36131 10.5757 1.72236 0.639611 -0.0528281 1.51503
191 1 7.05709 12.2883 1.83974 2.89831 -0.284423 -1.09746
1086 2 5.28418 12.3147 3.41197 4.50824 -5.8405 1.17084
1089 1 7.04795 10.7863 3.65541 -0.623256 -3.39271 -3.95253
186 2 5.32094 12.3168 0.0535449 0.78353 -1.41254 -3.66203
192 2 8.69884 10.6258 1.63878 -4.37498 1.20615 4.02256
1090 2 8.89353 12.5541 3.61615 -2.15637 -4.51212 1.95173
1034 2 12.5234 8.98669 3.49747 -6.86568 -0.922099 1.34677
134 3 12.3518 9.03585 0.0521866 -5.44599 -4.88758 1.69847
195 1 10.4861 12.5447 1.79356 0.975385 4.04356 -1.13679
196 3 12.2098 10.7136 1.80356 0.209994 -3.23915 -2.06419
1093 3 10.5528 10.7049 3.46406 -0.764606 0.894465 -0.294956
1094 2 12.354 12.5101 3.56206 0.163226 -1.99159 0.71392
194 1 12.3825 12.5383 0.19049 -2.57169 3.07159 2.35085
139 1 14.3832 8.91701 1.58212 0.387624 0.722626 2.82395
199 1 14.3879 12.54 1.79026 -8.63825 2.65652 -0.782772
200 1 16.0343 10.6397 1.79772 0.334964 1.33615 -2.03965
1097 3 14.1156 10.6419 3.4414 -3.22039 0.220212 0.928407
1098 2 16.0664 12.4554 3.54496 1.50175 -1.93027 3.49866
203 2 17.7761 12.6827 1.90454 2.81597 3.28263 -2.45224
198 1 15.988 12.3179 -0.0137627 2.4973 -0.27352 -4.24384
201 2 17.687 10.9263 0.000582639 1.61954 4.72549 -1.12749
143 2 17.6591 8.95844 1.78762 2.38263 -6.46621 3.43835
138 2 15.991 8.976 -0.0510854 -2.5104 2.77782 -1.25912
1101 1 17.8682 10.6983 3.47451 -0.69834 4.00169 -1.06086
147 2 21.3028 8.95695 1.97371 -2.01664 0.420744 0.812251
142 1 19.5685 9.04292 0.0380404 0.448461 2.15836 0.199759
1042 1 19.4809 8.97626 3.76326 0.421488 -1.43043 2.17872
204 1 19.4616 10.7441 1.7917 -2.36262 -5.73433 0.24123
207 1 21.2569 12.5498 1.84142 -0.343664 2.78983 -1.67582
1102 2 19.5889 12.5026 3.53524 0.727751 -1.78977 -2.93073
1105 1 21.36 10.7301 3.65257 0.45464 0.112359 2.61559
205 2 21.3341 10.6654 -0.00217205 -4.97909 4.67644 -1.81498
202 1 19.5663 12.5044 0.218386 0.105936 1.61726 2.37542
208 1 23.0665 10.6441 1.89745 4.30503 1.82101 0.882858
211 3 25.0113 12.4479 1.69154 0.397093 0.982404 -2.80201
1106 2 23.1198 12.5424 3.55133 -2.59585 0.881124 -1.08727
1109 2 24.9529 10.6778 3.44052 0.905152 0.96036 1.90194
209 3 24.8943 10.549 -0.0518757 -2.49196 -3.45034 -1.41696
1050 2 26.6204 8.89341 3.35507 -1.21087 -3.94594 5.17814
244 3 1.59033 14.3508 1.59 -2.05355 1.65431 -0.968377
247 2 3.46559 16.1612 1.5795 -0.459924 2.51789 1.61961
1142 1 1.81657 16.0908 3.39738 0.101757 -0.86268 -6.39199
1145 3 3.34533 14.1808 3.44988 6.58797 -2.13374 4.17223
242 3 1.71149 16.0799 -0.0542603 -0.81534 -2.4145 -1.95907
248 1 5.1785 14.2232 1.67775 -7.19309 3.23273 6.50892
251 1 6.86279 16.0959 1.77733 -0.202608 -0.377836 -2.77732
1146 2 5.23507 15.9132 3.46219 -0.535466 0.602511 -6.43174
1149 2 6.93657 14.1189 3.53727 -3.50089 -1.35024 -1.3658
252 1 8.61713 14.2268 1.75745 3.36433 0.137832 -2.00667
312 2 8.60615 17.8174 1.58679 0.944773 2.82453 0.571547
1150 2 8.52479 15.9427 3.48519 0.362728 1.15237 4.95782
250 1 8.74714 15.8563 -0.00699807 4.00178 -2.16886 1.04857
1209 1 6.86519 17.8152 3.61445 -1.00569 0.924376 -0.307238
255 2 10.5092 16.2308 1.70295 0.742498 0.675065 1.83337
256 1 12.4535 14.4552 1.77413 0.6699 2.68039 -3.34306
1153 1 10.6169 14.2439 3.52127 0.851625 4.21703 3.07884
1154 2 12.3708 16.0412 3.41029 2.46572 1.77386 1.66066
1213 1 10.4 17.7491 3.50201 4.2905 1.2718 -4.15191
259 3 14.354 16.0609 1.73648 3.6109 0.616949 -0.355527
260 1 16.1304 14.4349 1.8178 -1.83506 -4.58975 -0.928635
1157 3 14.1806 14.3709 3.50216 1.38158 -4.83944 1.03727
1158 2 16.092 15.9863 3.71001 3.15443 -2.22868 -1.90019
317 1 14.1782 17.8049 -0.00273657 2.05425 1.34778 2.01679
257 2 14.1923 14.2417 0.120464 -0.450618 -0.743353 2.31958
263 1 17.7457 16.0691 1.83852 1.81642 6.64791 -5.96534
1161 1 17.9052 14.3021 3.65081 0.355806 -1.00824 1.69322
264 2 19.5632 14.2978 1.78975 1.06917 -2.41085 -2.68005
267 2 21.5062 16.0978 1.97439 1.22896 0.867297 -2.5491
1162 1 19.5462 15.9659 3.62418 -1.70373 -3.80055 -0.31574
1165 1 21.2459 14.2441 3.6018 -2.79712 -1.78849 -4.41852
265 1 21.2633 14.2229 0.115692 2.17984 1.35942 -3.07473
324 2 19.5916 17.6218 1.94889 -1.49271 2.4928 1.86151
262 3 19.6038 16.0187 0.0876385 1.24717 -2.1726 0.685722
1225 1 21.4228 17.8109 3.58293 -1.01375 -1.87112 -0.672495
332 3 26.7516 17.8265 1.72058 -2.41784 2.23204 1.18363
268 2 23.2526 14.4263 1.7807 -2.4515 -1.7307 -0.900098
271 1 25.0157 16.0845 1.7674 -1.03647 4.96873 -3.8475
1166 2 23.4028 15.9906 3.70627 -2.48727 1.50032 -2.11532
1169 1 25.0673 14.2305 3.4928 -1.20675 -2.48453 5.37851
328 2 23.191 17.7879 1.61093 -1.98828 -1.54102 -0.363869
1205 2 3.53058 17.9228 3.53456 -2.60223 -0.428288 -0.481604
304 1 1.74703 17.8527 1.6475 1.97516 0.73973 1.62693
307 2 3.60129 19.8243 1.58523 -0.134987 -4.38155 -3.23891
364 2 1.82341 21.4966 2.00238 -0.0931151 -4.38215 0.363033
1202 1 1.93393 19.5885 3.4966 -2.04548 1.47386 -0.775141
1265 3 3.6648 21.3599 3.63689 0.282751 -3.19465 1.78236
302 1 1.71889 19.7539 0.0739366 -0.924432 1.18983 -0.137011
365 1 3.43674 21.5143 0.0581153 -2.0259 -0.535351 -0.922132
1261 1 0.153621 21.5583 3.5549 0.459896 1.04116 3.22171
308 3 5.30465 17.9893 1.68641 -2.06961 -0.969672 -1.53515
311 3 7.11105 19.739 1.60255 2.15923 0.061533 1.06843
368 1 5.26469 21.5221 1.76908 2.74803 -5.09586 -0.387768
1206 2 5.42226 19.6691 3.51423 1.13565 0.214034 -1.97604
1269 3 7.10905 21.4375 3.55014 0.24209 1.0662 -5.20763
369 2 7.07194 21.5554 -0.00746915 -3.58397 -1.25055 0.956695
306 3 5.32284 19.7151 -0.0534706 1.7173 3.45148 -3.92398
1210 2 8.72617 19.6344 3.42456 -0.517983 4.55805 -3.94242
372 2 8.78882 21.4786 1.79985 -1.38713 4.52102 -0.721723
316 1 12.337 17.861 1.66153 1.9187 0.791099 -1.79169
315 1 10.5458 19.4465 1.6607 3.00622 2.1314 -1.63341
376 2 12.3578 21.3437 1.96528 1.87947 1.66853 -0.205701
1214 2 12.47 19.4529 3.52433 0.988388 0.701443 2.87801
1273 1 10.6466 21.2144 3.56511 -0.0311233 1.26767 2.66236
314 1 12.3925 19.7524 -0.0193196 3.56545 -0.526053 0.663137
373 2 10.4928 21.3434 0.148711 6.69178 1.57345 -1.38747
320 2 16.1104 17.8909 1.80495 0.225714 2.39676 -1.89464
1217 1 14.4036 17.8375 3.43508 -1.5376 -2.30532 -0.934157
319 3 14.1971 19.6832 1.74398 3.51826 -1.04404 -0.328856
380 2 16.1137 21.1526 1.73751 1.07218 -1.12957 2.16143
1218 1 15.9988 19.7643 3.59582 0.506088 0.375848 1.57826
1277 1 14.2403 21.3998 3.59716 0.229123 -3.0471 -2.00493
318 3 16.0499 19.5408 0.0137624 -0.281652 2.12179 1.91886
1221 3 17.8155 17.8517 3.77752 -2.25787 0.66417 0.461709
323 1 17.8903 19.6001 1.83554 6.74899 2.19845 -2.82496
1281 2 17.8301 21.3798 3.56251 -4.85029 -0.200844 -5.15374
327 3 21.469 19.4954 1.73657 -0.631393 -2.32293 0.234006
384 3 19.6654 21.4155 1.75629 -6.80429 -5.61848 4.47506
1222 1 19.5644 19.6547 3.51854 2.51783 2.02456 -1.73119
1285 3 21.574 21.4608 3.5616 2.42663 1.45457 -1.55236
322 2 19.6459 19.5975 0.0785385 1.43257 2.05257 1.10347
385 3 21.402 21.3003 -0.0532907 -0.908944 1.13631 -0.611878
1229 2 25.3033 17.8769 3.50947 1.95192 1.22613 -2.72418
331 3 25.0859 19.7294 1.84038 2.02054 0.478902 -3.58808
388 3 23.0439 21.2433 1.74233 3.52259 2.50058 0.891943
1226 3 23.3722 19.5729 3.38263 -2.94289 0.0714792 3.977
1289 3 25.0085 21.5159 3.46821 3.35165 -4.41834 3.31907
389 3 25.0298 21.5287 0.00475804 -0.363581 -5.0602 -0.301938
330 3 26.7366 19.7748 -0.052493 1.83877 4.06549 0.119979
1322 1 1.66773 26.6922 3.61295 5.1765 -0.789989 -0.247547
367 2 3.54849 23.4431 1.7351 4.40607 -3.46467 0.624793
424 2 1.48651 24.9412 1.72519 -3.20247 -4.71918 -1.19708
1262 1 1.78148 23.2946 3.56381 -0.0677192 -2.78479 0.85269
1325 1 3.34438 25.1812 3.62023 0.298221 3.21607 -5.25558
427 1 3.32049 26.6783 1.87666 -0.263431 0.938485 1.19726
421 1 0.0681832 24.9237 0.117495 4.797 -3.4769 -2.24367
371 1 7.22326 23.3347 1.76828 -1.40218 0.195103 2.61413
428 2 5.38033 25.1139 1.73749 -0.677534 -2.16523 2.08583
1266 3 5.24377 23.3903 3.4665 -1.69753 -4.52499 -0.423719
1329 3 7.14301 24.9849 3.65083 1.18929 0.194894 -3.40798
429 2 7.12533 25.0031 0.0384551 -2.08473 0.800683 0.336052
366 1 5.38406 23.3428 -0.0228464 4.25528 0.0120611 -0.540982
1270 2 8.89513 23.049 3.71319 -3.63815 -3.3634 -1.48045
432 3 8.99971 25.088 1.76572 2.20939 -1.89623 5.27947
375 1 10.6857 23.0455 1.81941 -0.697901 -0.288085 2.06264
436 3 12.4766 24.8149 1.84883 1.16761 -5.00693 1.11352
1274 2 12.413 23.0642 3.67436 0.879402 -1.88266 3.21546
1333 3 10.7095 24.8199 3.52399 1.53382 -5.27447 -0.648133
374 3 12.3781 22.9777 0.0583688 -2.50179 1.46803 1.11763
370 1 8.93436 23.29 -0.00328021 -3.91706 -1.59917 2.2722
379 3 14.068 23.0827 1.858 1.65727 -1.53581 1.27384
440 1 16.0129 24.7967 1.83355 0.675152 4.023 -0.84643
1278 2 15.9493 22.9252 3.5312 -0.0220673 -1.70024 -1.75873
1337 1 14.1202 24.744 3.58395 -0.119179 -0.363255 -1.3554
383 1 17.8215 23.0413 1.87154 1.55142 5.8271 6.16535
378 2 16.0877 22.9958 0.174688 3.03892 -0.0982127 3.47386
439 2 14.2818 26.7606 1.84965 -3.378 4.49548 -0.89964
443 2 17.7909 26.4896 1.68029 -0.0897267 -1.47649 3.92842
1338 1 15.9285 26.6763 3.60079 1.2396 -2.21189 -1.95011
437 3 14.2034 24.9503 0.0810838 -5.96552 -3.47695 -1.9225
1341 3 17.8688 24.9206 3.57029 2.26776 1.72987 -0.759394
441 1 17.8697 24.7845 0.0564982 1.14731 0.972319 0.568897
387 3 21.4205 23.1981 1.73784 0.317377 4.22739 -0.518789
444 3 19.6105 24.8924 1.81247 1.75206 -1.48699 -3.64952
1282 3 19.6434 23.0012 3.69098 0.873329 -1.71991 -3.10356
1345 3 21.3964 24.94 3.57868 -1.90729 -0.977481 -0.378884
382 2 19.6768 23.1786 -0.0224267 -1.38947 -0.575812 -1.76801
1342 3 19.463 26.7593 3.62105 0.660728 1.96366 3.18579
445 1 21.354 25.2334 0.0195441 -1.20746 -1.41427 -0.139414
452 1 26.741 25.0255 1.7999 2.23156 -3.5027 3.55073
1346 3 23.2144 26.6133 3.69616 -3.72627 0.694475 1.40894
391 3 24.9562 23.2628 1.71547 1.62717 -3.77471 1.29212
448 2 23.1814 25.1702 1.61649 -0.329977 1.13467 -1.39115
1286 3 23.319 23.3004 3.57579 -3.64067 5.4949 -1.7985
1349 2 24.9878 24.8819 3.61664 -1.86826 0.538584 0.537103
449 2 24.9178 25.0191 -0.0168008 -2.65698 -7.59397 -2.9009
386 3 23.2257 23.1527 0.0320028 -0.821599 -1.66759 -4.60412
1861 2 0.0199265 3.49207 7.16569 1.21724 1.0006 3.25033
907 3 3.53427 1.77496 5.2505 -0.442797 1.49476 1.26873
964 3 1.75146 3.41927 5.36006 -0.0684531 -1.01174 0.741206
1802 3 1.71893 1.72663 7.19168 0.0315013 1.6804 3.15668
1865 2 3.54872 3.45706 7.218 0.667475 1.63179 -0.206058
1805 2 3.52886 0.106504 7.21167 0.0886269 -1.95022 -2.76294
904 1 1.75038 0.0558188 5.23466 -2.24052 2.49805 -1.10595
1801 3 0.139417 0.0579628 7.02394 0.181583 2.47553 0.795262
903 1 -0.0280613 1.70644 5.34289 6.10931 -2.12132 -3.04662
911 3 7.1673 1.7779 5.34236 2.00031 -3.40162 0.91806
968 3 5.28318 3.59845 5.33197 0.591292 0.953032 4.60805
1806 3 5.44912 1.88416 7.08617 -3.08923 1.46933 -1.04692
1869 3 7.15853 3.7015 7.05593 -1.78622 2.86839 4.59878
908 1 5.29581 0.101154 5.35393 -1.80947 0.678283 1.45269
1809 2 7.17483 0.117281 7.03556 2.53264 0.656232 -1.41153
1811 3 7.18662 1.69041 8.81123 -1.62515 2.69951 -1.82189
1872 3 8.93048 3.6137 8.85292 -0.438457 -2.57388 -1.15023
972 2 9.16775 3.56151 5.26223 -1.25785 -1.17297 -2.4646
1810 1 8.95542 1.66343 7.13502 3.6374 1.88634 -1.51075
915 1 10.6465 1.79103 5.2875 1.18507 1.12769 -1.50456
976 2 12.3983 3.52414 5.29531 -3.17437 1.84894 -0.455948
1814 2 12.3873 1.81205 7.03118 -0.9487 3.68463 -5.0358
1873 3 10.7266 3.6106 7.12428 4.0333 -2.4217 0.129726
1876 2 12.4953 3.4327 8.84817 -3.71199 -3.01017 -0.554325
916 2 12.5759 0.178337 5.18987 0.00455218 3.63406 -1.79041
1813 1 10.9197 -0.0132311 7.13285 -1.8324 2.36966 -1.97208
1817 3 14.2348 -0.0166627 6.96538 -1.26543 1.34978 -0.826897
919 3 14.2146 1.82027 5.16722 -0.829541 5.6102 -1.31912
980 1 16.0578 3.54127 5.3908 2.83801 5.323 0.394201
1818 2 16.2555 1.89934 7.15455 1.2327 2.1043 -1.39078
1877 1 14.3356 3.50204 7.21106 4.29682 3.10973 0.318032
920 3 16.0774 0.0885893 5.32619 -2.67864 2.23129 -0.423233
1823 3 17.8049 1.66542 8.81848 -0.780853 -0.842085 3.36631
1881 2 17.9806 3.60164 7.05886 2.38821 2.91701 1.6107
1821 3 17.8985 -0.0541802 7.11621 -2.27938 -1.18039 -1.73902
923 2 17.8573 1.79846 5.5081 1.76619 -0.712505 -2.3977
927 3 21.4567 1.92105 5.32098 -0.610747 1.92422 0.270735
984 1 19.6146 3.60565 5.37516 0.0941853 -0.758976 2.50181
1822 3 19.798 1.81512 7.17618 1.82409 0.736521 0.024891
1885 3 21.6091 3.55741 7.30976 -3.45215 -1.0582 -1.65098
1827 3 21.4436 1.71595 8.82718 -2.20818 -5.29185 5.07766
1829 2 25.0161 -0.0408393 7.06062 -4.73606 0.0226583 -1.43504
931 1 24.8908 1.83891 5.23427 -0.664615 2.8553 1.08124
988 2 23.2838 3.51434 5.30637 -1.02252 -0.846137 0.248147
1826 1 23.347 1.7981 7.02587 -2.06794 -0.811154 6.08898
1889 3 25.1204 3.55346 7.0597 -4.29214 -0.772397 -1.86754
1888 2 23.411 3.70212 8.8637 1.89606 -0.825873 5.7199
932 1 26.5584 0.0420951 5.37114 -3.52734 -2.1673 1.47254
967 3 3.54181 5.41885 5.2068 -5.9551 1.17239 -3.02869
1024 3 1.6259 7.10782 5.32201 1.27686 0.806284 -6.9105
1862 3 1.79923 5.29076 7.12225 2.94524 -1.59247 -1.72745
1925 3 3.55955 7.07016 7.00277 -7.49755 2.51573 0.872613
1922 3 1.74864 8.82383 7.03346 0.0520467 0.637208 3.68041
963 3 0.0924566 5.27853 5.15131 -1.24905 0.198423 -2.66969
1027 3 3.46989 8.7617 5.27408 -3.12714 0.373087 1.42253
1921 3 -0.0447158 7.05544 7.0937 -0.00639349 -4.41899 2.46819
1923 3 0.120345 8.82899 8.84378 3.17768 -4.22162 0.589097
971 3 7.15154 5.34961 5.23768 -4.40812 2.94361 -2.17917
1028 3 5.30421 7.15138 5.26429 2.60061 2.74096 -0.43318
1866 3 5.33274 5.31794 6.94578 3.47967 -0.0390662 -0.149335
1929 3 6.97366 6.94454 7.10087 1.57949 2.6741 0.490288
1928 3 5.31416 7.12844 8.89084 -0.0395317 0.580421 3.58634
1931 3 7.06417 8.78496 8.82671 1.18927 0.217898 6.80988
1031 3 7.18815 8.83617 5.40822 -2.91409 3.38663 -2.23501
1926 3 5.39639 8.76398 7.06514 2.86666 -1.00104 1.08292
1930 3 8.87075 8.84362 7.08213 -1.63666 5.03094 -0.881735
1870 3 8.99015 5.30323 6.98383 3.71089 -0.154482 2.88076
1032 3 8.98092 7.00148 5.20304 0.62778 -0.869971 -5.85709
1932 3 8.92008 7.09109 8.76403 -1.53655 1.66125 -3.77643
975 1 10.7827 5.40892 5.20273 -0.785122 -2.34081 -1.71831
1036 2 12.706 7.02794 5.31086 4.83083 0.0473196 -0.686341
1874 1 12.4893 5.32515 7.0469 -1.15365 -0.5969 -0.488474
1933 2 10.7053 7.06482 6.89503 -2.58424 2.48759 3.07079
1934 1 12.5257 8.8063 7.11359 3.83591 -1.44855 0.541564
1035 3 10.7844 8.75951 5.30217 2.75413 2.30763 -2.46573
1935 3 10.5381 8.87359 8.79923 3.68367 -4.31732 -1.96437
979 2 14.2172 5.29823 5.34921 0.141033 6.1127 -2.36167
1040 1 16.009 6.95179 5.22104 2.7131 0.522022 2.52727
1878 2 16.1675 5.27062 7.09034 1.51042 0.796075 -2.64123
1937 1 14.2989 7.1179 7.08117 0.175294 -1.76233 -1.89671
983 1 17.7956 5.28673 5.24537 0.925619 0.934623 -1.76418
1043 2 17.6655 8.8801 5.29698 5.52378 1.40824 -0.432694
1941 1 17.7409 7.11871 7.07437 0.773323 0.189556 -0.944264
1938 2 16.0747 8.80859 7.07913 -1.18618 -0.217175 0.0670324
1039 1 14.2528 8.72719 5.21854 -6.29424 1.09268 0.570376
987 3 21.4552 5.27812 5.37707 -0.79003 -5.91886 -1.99129
1044 2 19.6381 6.94952 5.45945 -1.1848 -0.62808 -3.28646
1882 2 19.5905 5.33292 7.28539 -0.661408 1.58115 0.512984
1945 1 21.3474 7.14059 6.9422 2.82962 -5.23292 4.56055
1944 2 19.4787 7.10255 8.83338 -1.22277 3.57929 0.881827
1047 2 21.2992 8.78625 5.24614 -2.54259 2.75679 3.10578
1942 1 19.6165 8.81924 7.16155 -0.64218 -1.66534 0.128739
991 3 25.043 5.34898 5.40143 -0.48077 -1.03575 1.62236
1048 2 23.1625 7.06174 5.53601 -3.72543 -3.62451 -0.144463
1886 1 23.2703 5.35285 7.0173 -0.971564 1.73404 0.137171
1949 2 25.0722 7.17912 7.11239 -2.79176 0.478625 -1.2097
1051 1 24.9804 8.81386 5.28607 -0.249598 2.06374 -1.3198
1951 1 25.2088 8.73206 8.77096 -2.29268 1.21132 3.69127
1891 1 25.0225 5.50108 8.7747 1.64829 -0.114976 -4.82927
1983 2 -0.0392879 12.5241 8.81594 4.91744 -4.36175 2.70985
1084 2 1.82381 10.5592 5.36653 5.76781 -4.60722 2.99696
1087 3 3.45963 12.354 5.22528 -0.690492 -2.34745 3.48898
1982 3 1.77571 12.4285 6.99877 0.739415 -1.24606 0.323744
1985 3 3.54108 10.494 7.08086 2.87291 2.7624 -2.40442
1984 3 1.74331 10.6562 8.86624 2.95592 -3.01211 -1.10207
1981 3 0.0467832 10.6101 7.09863 1.62287 -4.16037 -0.251082
1088 2 5.13376 10.6631 5.29395 -0.792536 2.32127 0.241581
1091 3 7.26102 12.3598 5.45204 -0.792779 -4.23121 -4.49562
1986 2 5.42189 12.3791 7.02994 -3.94265 2.003 -2.91543
1989 3 7.04589 10.5243 7.19866 -3.75885 -1.4865 -4.08699
1988 3 5.23763 10.5006 8.81087 -2.47762 -0.88846 2.98287
1991 3 7.01586 12.5296 8.87962 0.762982 -4.46721 2.67453
1092 2 8.95286 10.582 5.34237 6.10904 -1.31789 1.5616
1990 3 8.90017 12.4334 7.16308 0.56927 -0.652571 -0.831176
1095 1 10.6156 12.4359 5.29974 -3.60158 2.32474 -1.06517
1096 1 12.5108 10.5052 5.35457 -0.508352 -1.24782 0.58596
1993 1 10.7183 10.6244 6.94054 -1.17742 0.829773 -2.93078
1994 2 12.4489 12.5221 6.914 1.72768 2.26677 1.47039
1995 3 10.5984 12.3141 8.87329 0.423203 1.17666 5.02163
1996 3 12.5876 10.5822 8.8044 -1.4096 1.06243 3.40058
1099 1 14.2854 12.4389 5.33019 3.59613 -1.08543 -1.65634
1100 1 16.11 10.6884 5.32873 1.38935 -0.738711 3.62781
1997 2 14.3455 10.5238 6.86937 1.6885 5.91422 -1.1801
1998 2 15.8071 12.4683 7.07989 -4.60506 0.98419 -2.37679
1103 1 17.755 12.524 5.41186 2.88246 -3.62154 1.0452
2003 1 17.8199 12.4725 8.86813 -0.222313 -1.02378 1.67904
2000 1 16.0084 10.6607 8.71151 1.90184 -0.90697 -1.51155
2001 3 17.7681 10.7343 7.09575 -1.99662 2.01003 -1.57728
1104 2 19.5484 10.7097 5.40431 -2.2365 -2.85625 -2.26958
1107 1 21.3269 12.5466 5.27902 1.56204 -1.37921 -0.206207
2002 1 19.6311 12.5315 7.19769 -0.494859 -0.50681 4.63886
2005 3 21.3543 10.7298 7.25874 6.23925 0.347018 4.14633
2004 3 19.7626 10.6458 8.85927 -0.652309 4.31629 1.39216
1946 1 23.1458 8.89385 7.18451 -2.63139 -3.42889 -2.9524
1108 3 23.1778 10.6728 5.33759 1.88563 -2.88067 1.58567
1111 1 24.8235 12.426 5.22541 4.57439 -1.76689 -2.72178
2006 3 23.1014 12.446 7.02584 -1.79483 -4.41026 -0.680787
2009 2 25.1313 10.7185 7.02356 -1.72743 -4.82482 -0.96369
1112 1 26.6063 10.7759 5.2859 0.75596 -2.59219 -1.27468
2011 1 25.0272 12.4302 8.85944 -6.03128 -0.77655 1.36793
2008 3 23.3166 10.5519 8.80383 1.83989 -3.11439 -2.15425
1144 2 1.66504 14.3772 5.27744 3.42181 -0.527783 1.66743
1147 1 3.41717 15.9502 5.21692 0.0321376 -0.910464 -1.12517
2042 1 1.79452 16.2373 6.92689 4.79792 -0.865363 -3.93606
2045 2 3.52746 14.2112 7.03653 -2.31181 4.50486 -1.55686
1143 1 -0.0136827 16.1124 5.21272 -0.336407 -3.05924 4.34862
2047 3 3.42516 15.9675 8.81752 -2.98042 0.781867 -0.147287
2044 3 1.80282 14.1067 8.77766 -1.90843 1.45477 -1.01357
2041 1 -0.010927 14.3797 6.98993 3.38936 0.830294 -2.15147
2105 2 3.50702 17.7737 7.08484 -1.47682 -4.08168 -4.64346
1148 1 5.18748 14.1722 5.02583 -2.01993 -1.72434 -2.82065
1151 2 6.88398 16.2832 5.33377 -6.06618 0.320034 -2.20528
2046 3 5.25005 15.9004 7.07221 -0.57438 2.45224 2.13729
2049 2 7.03396 14.3665 7.17724 -2.7098 4.8165 3.38083
2052 2 8.87063 14.1886 8.8006 1.87729 -4.51943 0.544462
2048 3 5.26328 14.1915 8.81987 -0.601359 0.922381 0.61632
2051 2 7.15358 16.1333 8.79937 -2.7708 -4.29439 1.64235
1212 1 8.78998 17.7234 5.22849 -0.695417 0.431712 -1.34624
2109 3 6.98464 17.7214 7.06804 -5.08735 1.40838 -1.72791
1152 1 8.81088 14.2774 5.30679 -2.23484 2.6938 1.88173
1208 1 5.11095 17.8179 5.2751 -3.55243 -2.10559 1.46312
2050 1 8.90956 16.1422 7.03112 3.01182 -2.23029 -1.57274
1155 2 10.4748 15.9873 5.21335 -0.067284 1.10313 -0.133493
1156 3 12.3133 14.3649 5.30336 -0.568736 3.07185 0.292316
2053 2 10.678 14.2695 7.11949 2.24819 -3.48244 1.26754
2054 1 12.4556 16.059 7.05335 -6.50038 1.16196 -3.40534
2056 1 12.407 14.109 8.80321 2.01483 3.69794 1.98855
1216 1 12.2636 17.7264 5.37102 2.12256 0.36484 8.33142
2055 3 10.7215 15.9831 8.80523 -4.17014 4.11495 -0.746724
2113 2 10.5022 17.7364 7.01668 3.41936 -0.135924 3.05705
1159 2 14.2472 16.1404 5.28465 -5.77885 0.888789 -1.32098
1160 3 16.0132 14.2321 5.361 1.45017 5.73583 1.76245
2057 1 14.1295 14.2149 6.98726 0.842568 -4.47676 0.0670464
2058 1 15.9498 15.9821 7.2081 0.824575 -2.80134 3.1281
2061 2 17.7114 14.2457 7.0335 -0.855518 2.93169 -4.05558
2060 2 15.9758 14.1686 8.85866 2.18151 0.316044 -0.201669
2059 2 14.1681 15.9758 8.77961 5.58091 1.49542 -0.226074
2117 3 14.1261 17.7953 7.14563 0.627261 1.88443 1.58488
2120 1 15.9512 17.7485 8.84183 0.579671 -2.90173 7.73047
1163 1 18.0051 16.1983 5.54734 3.81845 1.94322 -0.71552
1164 2 19.6035 14.2744 5.34128 0.314876 2.65731 -4.39006
1167 2 21.4087 16.243 5.21645 1.60765 -0.71021 -5.60073
2062 1 19.7137 16.1744 7.17275 3.84119 0.561045 -1.28455
2065 1 21.3834 14.4042 7.0131 -2.33444 -0.493497 0.420658
2125 1 21.6427 17.7627 7.06445 2.66703 3.43734 -4.80449
2067 1 21.434 15.9472 8.87949 -1.7639 -1.233 1.07397
1168 1 23.1648 14.3286 5.22345 2.75183 1.75953 0.451337
1171 1 25.1929 16.0827 5.26321 2.03254 4.29352 1.51044
2066 2 23.2897 15.9774 6.96293 -2.07968 -2.58925 -0.234776
2069 3 24.9322 14.1649 7.03614 1.26881 -2.97434 -2.74819
2070 2 26.7268 16.0607 6.99065 -1.21255 -2.40336 6.22272
2068 2 23.2522 14.1968 8.75989 2.24576 -5.01991 5.19847
2071 1 25.082 16.0042 8.82123 -0.537436 -2.2437 -4.35362
2128 1 23.3628 17.8171 8.85028 1.59829 -1.9759 -2.0499
2161 1 0.0568674 21.5008 7.10205 3.99779 2.03284 3.23012
1204 2 1.72759 17.9021 5.3567 -0.979507 3.0215 -4.20982
2101 3 0.0377785 18.034 7.15128 -3.89069 3.13707 -2.71986
1207 1 3.54558 19.6528 5.40642 5.26924 5.15726 2.65636
1264 2 1.84536 21.4449 5.32912 2.76359 -0.993826 -2.53229
2102 3 1.87155 19.789 7.12134 -0.771693 3.18044 2.79041
2165 2 3.48017 21.5983 7.06998 -1.61467 -2.42516 -1.41859
1203 3 -0.0124838 19.6458 5.39067 1.21743 0.668273 -2.5325
2107 3 3.54322 19.4763 8.81774 0.845889 -1.27261 1.54653
2103 2 0.0808283 19.7587 8.87276 -0.392778 -3.06194 0.237747
1211 2 7.02879 19.6026 5.52229 -0.36708 3.36649 -1.58328
1268 3 5.42042 21.4734 5.40674 0.644852 1.83745 -1.05996
2106 1 5.34757 19.62 7.09329 -1.51375 -1.46113 -3.31327
2169 1 7.03099 21.2713 7.10415 0.199514 2.77856 4.76733
2110 1 8.84239 19.5525 7.2298 -1.66876 1.64893 -0.683982
2112 1 8.79566 17.8968 8.80152 3.57115 -1.65061 -2.90239
1272 1 8.87288 21.3177 5.58905 -1.37094 -2.62358 -1.93556
1215 2 10.6305 19.6541 5.32301 -1.08388 -2.016 1.69221
1276 1 12.366 21.2014 5.44862 2.2428 -4.08111 -2.42958
2114 1 12.2225 19.6345 7.15505 0.627832 -4.29411 2.27573
2173 2 10.5387 21.4238 7.22886 2.59233 2.00409 1.55227
2176 3 12.4372 21.3318 8.82651 0.977107 -4.35409 3.21465
1220 1 16.1055 17.8334 5.49976 3.9976 -4.54779 0.695291
1219 2 14.0937 19.4922 5.29946 -3.89718 -1.78937 1.64002
1280 1 16.0111 21.2738 5.49849 -0.699844 1.53265 1.62753
2118 1 16.0585 19.6911 7.2271 2.31758 -2.54602 -1.44676
2177 2 14.2485 21.3313 7.32326 -3.42056 5.30553 2.71622
1223 2 17.7874 19.5374 5.50734 0.247041 0.461838 4.30711
2181 1 17.7747 21.4381 7.16981 3.55016 -3.45697 0.464243
2119 3 14.1286 19.5686 8.87488 1.17463 -5.06752 1.21129
2121 2 17.7672 17.8479 7.32195 -3.62253 -3.52821 -3.26318
2123 3 17.8003 19.5534 8.8257 -2.7131 -1.77318 2.96903
1224 2 19.6543 17.9282 5.32216 -2.65219 -1.54522 -2.00842
1227 2 21.531 19.4584 5.1955 -0.394294 3.33345 1.46477
1284 3 19.7206 21.3326 5.43219 3.69042 4.60651 5.63775
2122 1 19.6644 19.598 7.07767 -0.804992 -1.58591 -2.42028
2185 1 21.5282 21.1783 7.11554 -1.93505 -1.91389 0.762312
2127 2 21.4925 19.5548 8.77919 -3.23009 -2.92863 1.07378
1228 1 23.3058 18.0152 5.20824 4.93389 4.6458 -4.66835
2129 3 24.9754 17.8987 7.0932 3.0145 1.15952 -0.324506
1231 3 24.9067 19.6319 5.32377 0.895402 3.34771 0.167563
1288 3 23.225 21.4357 5.25557 2.98527 -1.52526 -0.223523
2126 2 23.1786 19.5563 7.01355 0.963004 -2.09429 1.63722
2189 2 24.9582 21.474 7.19548 0.456938 0.21696 2.27264
2188 1 23.1559 21.3123 8.86205 0.13527 2.13547 0.428925
2131 3 24.9894 19.644 8.8644 -2.94816 -2.549 6.32453
2130 3 26.6749 19.7088 7.00799 0.309835 0.384603 -0.169203
2221 2 -0.00188175 24.8658 7.02495 -0.308643 -2.34594 1.81527
1267 3 3.65967 23.2669 5.34044 -1.29374 1.11756 -4.08127
1324 3 1.79048 24.9785 5.52284 0.433689 0.793895 -1.23984