ITEM: TIMESTEP
51000
ITEM: NUMBER OF ATOMS
13500
ITEM: BOX BOUNDS pp pp pp
-5.0559386728661337e-02 5.3570559386721307e+01
-5.0559386728661337e-02 5.3570559386721307e+01
-5.0559386728661337e-02 5.3570559386721307e+01
ITEM: ATOMS id type x y z vx vy vz
7 3 3.42485 1.9601 1.86973 0.593299 0.889967 1.41861
64 3 1.76649 3.72569 1.7119 -0.911686 -1.25315 -0.675599
902 2 1.69778 1.84351 3.55034 0.468863 1.47915 0.256011
965 3 3.42944 3.68737 3.52681 -1.60419 -0.793451 2.89514
4 3 1.69739 -0.00643606 1.74917 0.897336 0.525253 0.762681
905 1 3.40005 0.123642 3.66297 -0.608515 -0.112344 -3.31123
5 3 3.39777 0.0672251 -0.0185168 -0.856621 -1.05663 -4.39295
61 3 0.0603902 3.64029 -0.00361596 -2.67125 0.264065 -1.42289
3 3 -0.00062252 1.79266 1.82075 3.29478 -0.292201 1.42991
11 1 7.22679 1.88788 1.87838 -1.6956 1.48944 4.78354
68 3 5.37813 3.74952 1.81256 0.804657 2.11108 2.68156
906 2 5.40833 1.55158 3.62468 -2.06725 -0.238107 1.50244
969 3 6.95324 3.75078 3.46381 1.88289 1.56861 -0.485972
909 1 7.2965 0.070966 3.74309 -0.46783 0.681626 0.830458
8 3 5.24933 0.057853 1.71235 1.07636 -1.18542 2.15173
69 2 7.15613 3.79004 0.0969752 -2.07367 1.33488 -5.82819
6 3 5.15418 1.74616 0.156584 4.20349 1.0506 3.34022
72 2 8.84763 3.6049 1.86483 -0.957108 2.34535 -4.04503
9 2 7.16614 0.0403079 0.130048 3.08525 4.15734 -0.865536
12 2 8.89127 0.11927 1.81298 2.01073 0.473559 3.31049
910 1 8.9457 2.0466 3.6762 0.641634 -1.40336 3.74429
15 2 10.6503 1.86685 1.78069 1.18805 2.93197 1.47897
76 2 12.4897 3.60758 1.83379 -3.63677 -5.66156 -0.170017
914 1 12.4509 1.96891 3.60778 -6.11637 1.21357 -3.50841
973 1 10.7502 3.59302 3.7276 0.925191 0.467601 -0.347887
73 1 10.8115 3.74958 0.0225383 1.94446 5.57463 -2.20652
16 1 12.5214 0.109546 1.8633 -0.363604 0.477487 2.75591
14 2 12.4653 1.63915 0.209217 -2.39902 -3.93729 -0.253681
913 1 10.8403 0.162454 3.67244 1.56956 1.4207 -2.98086
10 1 8.94737 1.81803 0.0972146 -1.66819 0.8408 2.10218
19 1 14.4275 1.79285 1.88448 -4.76808 2.8405 -1.4067
80 2 15.9146 3.58204 1.77784 3.28969 1.76703 -1.2089
918 2 16.2203 1.76191 3.6795 -0.0516935 -1.89682 -4.15365
977 1 14.2648 3.59073 3.66711 5.72495 -0.269722 0.649975
18 2 16.1222 1.77586 -0.0529364 -3.47674 0.507452 -2.76617
917 2 14.3368 0.170147 3.63174 -0.0192821 -3.95318 -1.14794
77 1 14.2649 3.57703 0.0298917 3.80412 0.541775 2.8844
20 1 16.078 -0.0053403 1.82697 0.793893 -0.331384 -1.17295
981 1 17.6973 3.50863 3.66604 -1.75389 1.69069 -0.160506
23 2 17.8949 1.61624 1.95207 -1.21341 -1.55278 1.24324
921 1 17.9171 0.00295954 3.76553 -2.18422 -3.68658 -2.80084
27 3 21.4586 1.73093 1.88733 -1.48676 -3.85255 0.669948
84 1 19.5163 3.61015 1.83694 -0.955394 -1.14339 3.06017
922 1 19.5993 1.73586 3.51293 -1.87742 1.10778 -1.5501
985 3 21.4788 3.57736 3.66582 1.27084 1.50135 0.117451
24 1 19.6432 0.0432073 1.79583 0.740718 -2.85689 0.861182
925 2 21.3763 -0.0256514 3.82074 -2.53697 -4.36223 -2.65322
22 2 19.4625 1.84816 0.00861471 -4.38992 1.5946 -1.441
31 2 24.9605 1.89509 1.6696 6.3607 0.100703 -0.0834295
88 3 23.1344 3.59655 1.71474 -0.0696669 1.75069 -5.13626
926 1 23.3241 1.84352 3.49131 -0.00406953 0.273236 -0.187141
989 3 25.1725 3.61955 3.55589 -0.899665 -3.06882 -0.318081
929 2 25.0917 0.127062 3.44673 3.14325 -1.6678 4.6633
26 1 23.1679 1.82455 0.0619414 -2.35557 -3.55847 -0.78468
89 3 25.0491 3.63045 0.0472777 -1.1083 -0.472199 1.00903
67 3 3.589 5.34769 1.72754 -4.46844 2.10419 0.677612
124 3 1.73164 7.18502 1.80282 4.33022 -3.9604 0.991239
962 3 1.75368 5.39461 3.60143 -0.17922 2.87817 5.27271
1025 3 3.59546 7.17117 3.41367 -3.60229 -2.51714 4.94611
1021 2 -0.0251349 7.00565 3.57234 -3.25368 -0.770702 0.925317
125 2 3.48737 7.26028 -0.0138621 -3.71777 1.69287 -2.88865
121 2 -0.0244386 7.11795 0.140262 -4.08661 1.9139 0.635702
122 1 1.53782 8.81767 0.0444899 -0.4633 3.73038 3.53591
62 2 1.77901 5.43683 0.00177173 2.95974 -0.34006 5.08121
71 1 7.117 5.38668 1.58015 -4.89351 2.21572 0.0255782
128 2 5.44746 7.21938 1.6519 4.66578 2.65701 -0.0473192
966 3 5.19048 5.46129 3.58062 1.43729 5.18357 -2.17183
1029 3 7.15792 7.21504 3.57874 -1.01065 0.237574 2.84283
970 3 8.70891 5.29455 3.57618 4.63746 -2.19291 -0.0850511
129 1 7.14292 7.2291 -0.0426109 -1.09395 1.46476 1.81
132 3 8.92349 7.25039 1.87083 2.30572 0.102919 -0.113649
70 1 9.0969 5.48121 -0.0141775 2.09383 1.16631 -0.432918
75 3 10.652 5.37047 1.97216 0.617032 -1.45906 -0.16285
136 1 12.5008 7.1374 1.89611 -2.13671 -0.0887965 0.886193
974 1 12.5297 5.37989 3.58782 -0.9873 -2.70057 -0.845459
1033 3 10.5892 7.19933 3.60991 1.4221 -0.761529 0.136073
74 2 12.6077 5.35394 0.190459 -1.19549 2.21109 -2.79339
133 2 10.786 7.05783 0.0237173 5.13088 -0.265786 -3.57482
134 2 12.4088 8.85706 -0.00330264 2.97768 -0.740344 2.36924
79 1 14.2277 5.34089 1.87715 -2.26396 3.61947 3.77864
140 1 15.8773 7.152 1.7384 -0.70357 -1.52964 1.92909
978 2 16.0256 5.37986 3.38667 -1.26231 -2.58544 3.86577
1037 2 14.2763 6.99885 3.62652 0.0782226 -3.47553 -0.571244
83 2 17.7705 5.51004 1.5895 3.12226 -1.19497 -5.25461
1038 2 15.9773 8.84851 3.46661 -0.843813 0.720822 2.71641
137 2 14.162 7.24325 0.0850794 2.16754 3.6781 -0.0481424
1041 1 17.7588 7.02478 3.60958 -2.16862 -2.01444 -3.22502
87 3 21.3059 5.43115 1.84057 0.860361 -3.90681 4.45454
144 1 19.6314 7.07286 1.8683 -2.79323 1.20908 -3.50866
982 2 19.4379 5.24468 3.61677 -5.48264 -5.1538 -1.04173
1045 1 21.4337 7.12542 3.81596 -0.367637 -1.14647 1.3358
143 2 17.8779 8.71226 1.72663 -5.02848 -0.126847 -1.12108
147 2 21.3324 8.68724 1.90663 5.12216 3.11692 0.4699
1042 1 19.7095 8.82609 3.52096 -5.10424 0.260944 3.36586
142 1 19.5387 8.78391 0.0387899 0.695539 0.196651 1.89123
141 1 17.8793 7.14339 0.0283262 0.43583 -0.00646927 2.29793
91 3 25.0445 5.41387 1.72241 -0.203375 -1.04391 0.504211
148 3 23.2619 7.13789 1.75736 -4.26673 -3.39076 0.17525
986 3 23.2602 5.21113 3.5242 3.95996 -2.51806 -2.15858
1049 3 25.0615 7.20919 3.5223 0.614271 -1.83178 2.50421
149 3 24.9294 7.12969 -0.0374892 -5.41405 2.43415 -0.173621
86 3 23.1088 5.41485 -0.05128 2.61217 1.83488 -1.16593
1022 3 1.78093 8.95923 3.39029 2.11467 -1.34676 2.50832
127 2 3.6459 8.93904 1.73639 -1.36327 1.97304 3.8972
184 2 1.75259 10.7978 1.79555 5.64011 1.69815 -1.68026
187 2 3.66913 12.6831 1.8784 0.296798 1.3021 -0.277896
1082 1 1.84536 12.4875 3.37449 1.36941 0.458266 -1.66056
1085 1 3.67354 10.8443 3.45668 3.49988 1.36883 -0.200661
1081 3 -0.028886 10.8018 3.57039 -2.12216 2.03745 0.974624
131 2 7.1691 9.11672 1.64449 -0.865754 -3.44804 5.73487
1026 3 5.36324 9.01753 3.51277 -0.139728 0.926526 -3.0937
188 2 5.40539 10.7933 1.77781 2.36413 -0.805911 6.09591
191 1 7.26664 12.5074 1.77246 0.3541 0.547166 -2.94726
1086 2 5.27525 12.6251 3.67198 -1.4235 0.715076 0.715061
1089 1 7.0903 10.8688 3.55616 -0.77065 -3.2705 2.97373
135 1 10.6927 9.07809 1.76742 -4.77175 4.54069 -1.5363
1034 2 12.5717 9.10779 3.5132 1.62161 -1.04209 1.89125
1030 3 8.94497 9.01109 3.61411 0.736393 -0.979372 -0.342651
1090 2 9.14543 12.4915 3.63979 -0.653391 -3.24487 1.79493
192 2 8.95732 10.7533 1.79721 0.598326 4.10421 1.26615
195 1 10.7807 12.5004 1.79412 1.75664 -4.23929 1.86028
196 3 12.4269 10.846 1.88808 3.95773 -3.99821 -3.66624
1093 3 10.8653 10.7891 3.5619 -3.23168 -1.46129 0.132879
1094 2 12.5693 12.6899 3.58757 0.284401 -3.50924 2.77716
194 3 12.6508 12.539 0.0837203 -1.73417 -0.319737 -0.680486
139 1 14.0979 9.08674 1.74945 0.596506 -0.494132 5.62278
199 3 14.2939 12.4731 1.8154 -1.8231 1.27442 0.646391
200 1 16.1345 10.575 1.84275 -1.59916 -1.25815 -3.20512
1097 3 14.3737 10.7903 3.61134 -0.472672 -1.14458 -0.930339
1098 2 16.1699 12.3801 3.54634 1.31523 1.0986 -1.82948
197 2 14.2002 10.7535 0.0392605 4.71475 -1.71557 1.52687
198 3 16.0788 12.4885 0.071388 0.599873 0.160125 0.315931
1101 3 17.7527 10.5824 3.62796 -2.15459 2.50707 -1.68017
203 2 17.943 12.5598 1.88882 0.0938968 -0.594947 -0.420291
204 1 19.6348 10.6062 1.60609 0.46804 -1.68424 3.653
207 1 21.3958 12.4162 1.77006 -2.05113 -0.841865 1.29523
1102 2 19.6744 12.471 3.55941 -2.17644 -1.97096 0.00290028
1105 1 21.4488 10.7184 3.50894 1.91344 -1.79369 -2.257
202 1 19.8436 12.3522 -0.0492903 0.391424 -0.500932 -3.27909
205 2 21.3667 10.6955 0.0591764 1.19899 -3.21718 -0.329373
1046 1 23.1182 8.93241 3.45839 -2.34193 0.708015 -0.211602
151 2 24.9935 9.00486 1.63764 2.38631 -2.23892 -0.118998
208 1 23.1781 10.651 1.78092 2.17505 0.397772 0.374666
211 1 24.9173 12.3929 1.62945 0.927852 0.335136 -1.91124
1106 2 23.2435 12.6509 3.53775 2.65515 -0.195768 -5.86185
1109 2 24.954 10.7808 3.58867 1.12764 -3.87953 0.939899
1050 2 26.6903 9.09461 3.44913 0.303074 -0.66463 -1.4966
212 1 26.6891 10.7761 1.58357 1.60375 3.68131 0.0655352
206 2 23.1716 12.2163 -0.0269022 1.93595 3.01866 0.793739
209 2 24.9465 10.6372 -0.00128914 2.93216 3.62554 1.71626
244 2 1.71615 14.2269 1.72497 -0.25807 -4.19557 -2.3483
247 2 3.70155 15.9222 1.85509 0.68364 0.274602 0.95947
1142 1 1.8216 15.8809 3.56263 -0.0187258 -1.96489 0.0745915
1145 1 3.4517 14.2364 3.61672 0.307034 -4.16319 -1.93383
1205 2 3.57205 17.7744 3.39184 4.44595 0.978538 -0.0347483
304 3 1.83331 17.6378 1.71074 -3.09575 -0.0228097 2.27623
245 1 3.57015 14.4024 -0.00211652 -0.614029 -0.130566 -0.21954
241 3 0.0187649 14.2112 -0.0328859 0.404775 -1.23703 -4.93372
1201 3 0.0877699 17.6384 3.51025 -1.42955 -1.04909 -0.617203
301 3 0.0748771 17.6464 0.0448379 -2.63619 0.167141 1.09045
248 1 5.46774 14.1643 1.71797 3.17269 0.610407 1.87862
251 1 7.24521 15.8733 1.84175 -0.185792 -0.876027 1.22777
1146 2 5.36135 15.9181 3.51256 1.78491 -2.78344 -1.39349
1149 2 7.25085 14.0259 3.5312 -1.63121 -1.22396 3.4686
246 2 5.55655 16.0145 -0.0445196 2.67184 -5.09341 -1.02883
308 1 5.34208 17.6816 1.79345 -3.77311 0.846514 -1.16688
249 2 7.07233 14.2689 0.120127 -2.40231 2.02319 1.10233
1150 2 8.86649 16.0504 3.4599 2.36518 0.17371 -0.160101
250 1 9.07113 16.077 0.00966657 0.990786 -0.963675 -1.52693
252 1 9.07142 14.1125 1.65276 -0.152135 -5.74471 2.39287
255 2 10.7791 16.0848 1.82595 0.118973 2.89938 3.85434
256 3 12.6575 14.3892 1.77874 -0.568605 5.61873 -1.82542
1153 1 10.7477 14.3039 3.53742 -1.41384 0.11517 0.538271
1154 1 12.5813 16.155 3.70464 -2.33819 -1.51532 0.46775
254 3 12.5272 16.1215 0.0767756 -2.00589 4.3003 0.108973
313 3 10.8306 17.807 0.00981426 -3.50081 6.98645 -2.70485
253 2 10.715 14.2473 0.103556 3.67014 2.37046 -0.0899581
259 3 14.3501 16.2322 1.90702 2.76671 -3.1206 0.135059
260 1 16.1675 14.2759 1.92102 1.05355 -4.75058 0.520655
1157 3 14.4057 14.3223 3.67502 2.97142 -2.26809 0.59127
1158 2 16.2151 16.0047 3.83201 -2.13809 -1.73543 -3.12604
258 3 16.0334 15.9933 0.09325 0.0170257 -0.349829 2.45314
261 2 17.8098 14.1682 -0.0460547 4.37968 -4.04592 -1.46058
263 3 17.8527 15.9805 1.86697 0.340399 -9.13626 -2.94451
1161 1 17.9033 14.2704 3.67097 -6.0194 -1.28831 0.112755
264 2 19.63 14.3495 1.66545 -2.65251 0.360708 -4.22227
267 2 21.5644 16.147 1.83302 -0.926029 2.93732 -1.1572
1162 1 19.7479 15.9608 3.6621 3.38939 -1.9341 1.0804
1165 1 21.3656 14.2582 3.56204 3.99121 -4.0374 1.87965
262 1 19.697 15.9304 0.0160627 4.49503 0.212038 2.2817
265 1 21.4724 14.2216 -0.000498865 2.54564 -2.42873 -4.72447
324 2 19.7564 17.652 1.90771 2.58384 7.65147 -0.202083
1221 1 18.0484 17.7055 3.69515 -2.39556 1.975 -0.555078
1225 1 21.6675 17.7004 3.5699 -3.34117 -1.44481 -1.09527
321 3 17.8279 17.6617 -0.0195402 -2.38552 2.82929 3.37743
325 1 21.4633 17.5302 -0.0490303 0.0251071 -0.00392823 0.0380956
268 2 23.2928 14.2497 1.6829 0.707814 4.9169 -0.755813
271 1 24.9522 15.9491 1.63549 1.96454 -5.07765 0.969602
1166 2 23.2567 15.9167 3.54581 2.34939 -0.480683 -5.13979
1169 1 25.1424 14.2961 3.37568 -0.562148 0.422535 -0.450065
328 2 23.2485 17.7382 1.65837 -0.27021 -0.0308435 -3.3678
332 3 26.6068 17.7858 1.54545 0.484833 -0.0310052 4.47583
1229 3 24.8461 17.7296 3.36727 -0.449389 -3.69073 -1.70168
307 1 3.7107 19.4608 1.65265 1.37743 4.33019 -1.48898
364 2 1.85086 21.3362 1.89256 -1.61008 2.92594 -1.35385
1202 1 1.94077 19.5447 3.3229 0.11547 1.36745 -0.0533467
1265 1 3.65133 21.4236 3.49221 -4.21927 -2.76837 4.63649
302 2 1.85018 19.7652 -0.0244458 7.15389 2.1321 0.95331
303 3 0.0465143 19.4278 1.85986 -1.21408 0.189136 2.83585
1261 1 0.0970989 21.3827 3.50372 1.38927 2.69103 -2.01439
361 2 0.104503 21.3535 0.170331 -1.42305 1.18021 -7.27378
365 3 3.65829 21.3335 0.0648295 -4.06724 1.01885 -2.52129
1209 1 7.02977 17.8758 3.43043 -0.652727 1.80541 -1.92712
311 1 7.06913 19.5606 1.78384 -1.28956 1.85463 -1.66349
368 1 5.39123 21.4592 1.87081 0.69375 4.22263 -1.96672
1206 2 5.31297 19.6216 3.37343 -1.53759 1.27295 -1.58855
1269 1 7.12158 21.4191 3.72425 2.78732 -0.350301 2.18036
369 2 7.14606 21.4326 0.0263671 -1.87257 -2.26049 -2.62975
309 2 7.4111 17.8836 0.12204 -4.95855 -0.130248 -4.31466
306 3 5.42773 19.5666 -0.0168309 3.2731 -0.627305 1.58125
1210 2 8.91939 19.7423 3.65584 2.54461 0.138153 -1.61332
372 2 8.92428 21.3888 1.90224 0.701226 -2.81117 3.59357
1213 1 10.7065 17.9636 3.73333 -3.38959 3.23219 -0.4565
316 2 12.5462 17.9436 1.79046 3.78643 1.66315 -4.38704
312 2 8.98926 17.9722 1.86267 4.80764 0.130156 -0.595611
310 1 8.99006 19.6583 -0.0525009 1.19357 0.430642 -4.34623
315 1 10.9059 19.5979 1.80539 -3.79196 0.26028 1.92173
376 2 12.6738 21.3752 1.98194 -2.1666 -3.56703 3.40165
1214 2 12.5957 19.6163 3.72198 2.2132 2.67506 3.13094
1273 1 10.8075 21.3202 3.53077 2.05783 -1.47051 1.71084
314 1 12.6162 19.7259 0.116178 -1.43886 -4.99619 -0.0646686
373 2 10.7416 21.5037 0.0295186 -3.3097 -1.53298 -1.76144
320 3 16.213 17.8554 1.88243 1.03063 0.748782 2.37672
317 3 14.275 17.8995 0.00629771 -0.138953 0.177497 -4.49792
1217 1 14.4797 17.8472 3.66329 -1.19845 -0.779579 1.95698
319 3 14.3375 19.6635 1.84349 -1.62878 5.02591 -2.17163
380 3 16.0814 21.3168 1.79905 0.125917 2.88603 -2.87607
1218 3 16.0164 19.6632 3.64547 -1.12592 -2.29507 2.1344
1277 1 14.1293 21.581 3.71468 2.28026 -1.37067 0.1915
377 2 14.2648 21.4831 0.014171 1.7478 3.51901 0.256169
318 3 16.0927 19.5318 -0.0190652 0.0759741 3.3469 0.0272699
381 3 17.8751 21.3159 0.0360889 0.0489837 7.65162 1.10421
1281 2 17.891 21.4364 3.68399 3.14024 1.28761 -2.37221
323 3 17.9795 19.3968 1.92203 3.72928 1.97049 -2.21472
327 2 21.4443 19.4461 1.66023 1.21998 -4.93712 0.939313
384 3 19.5737 21.2251 1.78497 -5.42619 -1.17765 -0.983139
1222 1 19.6656 19.425 3.66849 0.403501 2.68074 -4.0483
1285 3 21.4899 21.3304 3.47304 1.59113 -3.64375 -0.230701
385 3 21.3345 21.4992 0.0767079 3.8188 -2.11934 2.10693
322 3 19.6925 19.5221 -0.0358877 2.88412 0.222588 -1.74306
331 3 24.8035 19.6324 1.56386 2.35233 0.0814689 -2.71123
388 3 23.298 21.4683 1.69219 -2.04184 1.96074 -0.443192
1226 3 23.2387 19.631 3.4062 -3.00078 0.947423 0.83349
1289 2 24.9352 21.3162 3.3623 -0.59928 0.940482 3.04416
1230 3 26.7366 19.5467 3.43509 3.20923 -3.04266 0.20522
326 3 23.105 19.6182 -0.0218207 -1.40149 2.95364 -3.86429
367 2 3.50455 23.2675 1.79533 4.00024 1.03185 -1.95553
424 2 1.78491 24.935 1.75652 -3.97193 3.81295 -3.13284
1262 1 1.76235 23.0597 3.60713 2.43767 -0.347335 -3.20406
1325 1 3.37834 24.9076 3.51051 1.6198 2.00506 1.62079
1321 2 0.12457 24.9057 3.51285 -2.31772 -2.33726 -1.71853
362 1 1.62203 23.2551 0.0778287 4.17895 2.80563 3.17351
421 1 0.0601813 25.081 -0.0192295 -3.50858 -2.88052 -1.29621
363 1 -0.0174011 23.2498 1.85802 0.210398 0.855147 -0.810076
427 1 3.68582 26.619 1.89139 0.939065 0.141954 -1.34777
371 1 7.22647 23.2772 1.9087 -2.65769 2.10329 1.93069
428 2 5.43819 25.0465 1.82724 -1.74403 1.46424 -3.52879
1266 2 5.17552 23.1248 3.57467 5.71864 -1.66187 1.00877
1329 3 7.15951 25.1532 3.58855 -3.02887 -4.79769 -1.55025
430 1 8.73722 26.7333 0.097581 0.300586 2.22122 1.7201
429 2 7.00426 24.8697 0.088547 3.18013 -3.67518 3.53013
370 1 8.88403 23.1069 0.0284504 -1.28096 -1.22797 -1.32974
1270 2 8.95754 23.227 3.52998 -1.39086 0.629429 3.30168
432 2 9.03986 25.1024 1.71374 1.61617 -0.820161 -6.6188
375 1 10.7772 23.0284 1.75637 -2.53626 0.648143 -4.44578
436 1 12.3581 25.0441 1.94886 -4.05174 -2.01265 -4.12179
1274 2 12.4455 23.1817 3.72671 -0.688404 -3.56199 3.17768
1333 1 10.6919 25.091 3.57558 2.89631 3.49016 -1.17679
433 2 10.819 24.9857 0.170911 1.90025 1.84564 -0.261306
374 1 12.4497 23.184 0.0901486 0.635879 0.851605 -0.152097
379 1 14.3778 23.3371 1.91362 -0.320385 -1.05753 -3.63223
440 2 15.9537 24.9466 2.05893 2.68136 -2.52343 -0.801948
1278 2 16.0883 23.2664 3.74601 -0.962912 -4.74755 -1.98721
1337 1 14.1049 25.0421 3.69663 -1.6395 0.173346 1.70196
378 3 16.1351 23.2218 0.0438162 -2.82505 2.44582 -2.66308
441 1 17.8181 24.9555 0.0359554 1.69225 2.86336 0.703264
383 3 17.8012 23.0074 1.86921 1.50144 -3.21893 2.31987
439 2 14.4087 26.749 1.87256 2.02814 3.14963 4.3151
1338 1 16.0754 26.6777 3.80099 -0.656818 0.787497 2.64735
437 3 14.222 24.9406 0.0486926 -0.179807 2.93269 4.34091
1341 1 17.8017 25.0285 3.59953 -0.178333 -2.39413 -7.83253
387 3 21.4151 23.1906 1.78897 -2.32458 -3.29201 5.09848
444 3 19.4916 24.8547 1.67945 1.42873 1.50737 -1.07637
1282 2 19.5772 23.1334 3.60566 4.61344 -1.06553 1.33047
1345 3 21.4668 25.018 3.50423 3.07422 2.63929 0.152314
445 1 21.4003 25.1336 -0.00951989 3.98003 1.66133 1.51459
382 2 19.6768 23.1866 0.0790563 2.70918 0.35609 -0.110104
1342 1 19.5849 26.6119 3.44178 -2.66114 1.37679 -1.61903
451 1 25.1347 26.6856 1.62719 -2.4182 1.08862 -1.00917
391 3 24.9076 23.2087 1.69395 1.48323 -0.552398 -2.16217
448 3 23.2852 25.0833 1.78775 1.62731 0.530485 0.367924
1286 3 23.2674 23.0927 3.53129 0.748811 -0.312448 -0.887755
1349 2 25.1214 24.9853 3.47321 -2.1344 2.56576 -4.74237
1290 3 26.6896 23.1319 3.50423 0.142685 2.9681 -0.399461
907 3 3.46204 1.81737 5.45765 0.869755 -1.4351 -0.276941
964 1 1.65141 3.4445 5.28115 0.412897 -3.43767 -3.09369
1802 2 1.57753 1.78824 7.03888 5.01127 1.44176 -2.41786
1865 2 3.47939 3.53598 7.24792 -0.803499 0.0148078 -3.16628
1805 2 3.65781 -0.0252 7.14891 -8.51671 -2.28063 -4.80758
1804 1 1.49423 0.0809075 8.70252 4.86435 -0.225033 1.85778
1807 1 3.49 1.90385 8.86018 3.50473 -0.862515 -1.54567
1809 2 7.14776 0.129318 7.18326 1.20484 -0.519273 -2.30391
911 2 7.14793 1.91542 5.3506 3.46923 -1.04185 2.99284
968 3 5.23632 3.53617 5.3637 -4.04438 0.744411 -5.13487
1806 1 5.32645 2.01309 7.02649 3.15481 -1.29514 -1.86232
1869 2 7.12167 3.63222 7.34139 -1.03944 -1.15843 1.91181
908 1 5.37005 0.119188 5.42686 1.4353 0.616574 1.1078
972 3 8.83107 3.65047 5.50845 -2.45797 1.51253 1.21092
1808 2 5.33872 0.0314319 8.85658 -3.00524 1.37341 -2.86521
1813 1 10.9511 0.0772207 7.2044 -0.827755 0.805692 -1.56108
1810 1 8.93091 1.75811 7.31941 -0.185869 -0.500828 -6.30332
912 2 8.9676 0.156614 5.56076 -3.73591 -0.61047 -0.0218388
915 2 10.7565 1.74654 5.55527 3.34528 1.24334 -3.03584
976 2 12.5164 3.61132 5.38339 -1.57685 1.4312 -1.10327
1814 3 12.6542 1.82323 7.30805 3.67435 1.33771 5.41629
1873 3 10.7528 3.63176 7.13688 1.34868 3.39485 -2.41332
916 2 12.4787 0.0645916 5.38308 1.57871 -1.29539 -1.3885
1817 3 14.3205 -0.0184534 7.12423 -0.81183 1.07743 1.42335
919 1 14.317 1.77374 5.31837 3.55732 3.53086 0.537721
980 1 16.0632 3.61368 5.40984 -0.480788 0.000330733 3.57947
1818 2 16.2543 1.90456 7.16216 0.584506 3.80917 -1.98878
1877 1 14.3639 3.52457 7.28655 0.18396 1.67012 0.651723
920 1 16.0264 0.0243939 5.28887 -3.23575 3.85969 -1.31513
1881 2 17.8789 3.5477 7.33986 -0.200716 1.26821 -0.953979
923 2 17.9303 1.97177 5.48342 -0.320533 0.23156 -5.92978
927 3 21.4773 1.83982 5.36794 -2.10172 -1.77998 0.36178
984 1 19.72 3.75897 5.37775 0.168897 1.80033 0.968882
1822 1 19.6796 1.98967 7.18019 1.25759 -2.53977 -3.97679
1885 2 21.443 3.68033 7.05705 1.86006 0.851671 -0.778563
924 1 19.7668 0.00917392 5.50076 -0.40529 -4.03771 0.885528
1821 3 17.9072 -0.0187308 7.16962 -3.45527 0.796061 -0.966116
1827 3 21.4698 1.69197 8.70941 0.385135 1.00434 -0.266876
1824 2 19.7729 0.0420521 8.88781 -0.474547 4.04201 2.92083
928 2 23.4144 -0.00133336 5.1501 4.04581 0.732432 -4.23251
931 1 24.8789 1.99023 5.30825 1.96196 0.644686 -0.587691
988 2 23.2491 3.65483 5.41642 3.54692 -3.43944 -0.690172
1826 1 23.2799 1.81534 7.11504 -0.509574 -1.64619 0.0836533
1889 1 25.1234 3.70818 6.96067 -1.16898 -1.90048 2.69771
1888 2 23.23 3.59891 8.7274 -0.382104 -0.934808 3.21233
1831 3 25.0559 1.84402 8.71582 0.629223 2.11315 2.46054
1828 1 23.2824 -0.0149233 8.76156 3.91449 -2.47383 3.69254
1829 2 25.0231 0.0950507 7.01097 0.906786 4.87441 0.288887
967 3 3.66076 5.46236 5.33655 -6.25623 4.42706 -1.54067
1024 3 1.9277 7.28276 5.1686 -3.06243 -5.82284 -1.34095
1862 3 1.88394 5.37372 7.13696 -0.534228 0.602233 -1.47818
1925 3 3.64584 7.14144 7.17757 0.567348 -3.23172 1.33075
1921 3 -0.0291207 7.19208 7.05276 0.539336 -1.71006 -0.0734725
1924 3 1.78736 7.18767 8.79893 0.680478 -1.40018 2.37213
963 3 0.0721577 5.37975 5.41192 -0.663232 1.58505 -0.117911
1923 3 0.140716 8.86506 8.81526 -3.12482 -3.50468 0.485359
971 3 7.03154 5.24906 5.34465 -3.54183 -0.396179 3.32353
1028 3 5.44136 7.19633 5.38572 6.24505 5.43907 -2.96546
1866 3 5.19759 5.31241 7.45503 1.46206 6.0822 -0.628449
1929 3 7.17216 7.14529 7.08212 -1.34297 1.48018 0.199879
1928 3 5.4066 7.31376 8.84982 -1.68349 1.68575 -0.0675644
1032 3 8.90628 7.07539 5.33296 2.42701 2.82562 -0.490828
1870 3 8.88555 5.40367 7.11359 -1.28819 6.53304 -2.65459
975 2 10.745 5.43316 5.5072 1.45235 -3.35045 2.49827
1036 3 12.441 7.15611 5.38204 -0.155563 0.596591 -2.65503
1874 1 12.5504 5.33805 7.33827 2.20873 1.89368 1.79269
1933 2 10.8284 7.24415 7.32213 -2.8221 2.64993 0.809278
1935 1 10.7626 8.81461 8.84318 1.37508 1.47193 2.76126
979 2 14.2362 5.28275 5.29835 -3.28238 -5.48787 0.144885
1040 1 16.0806 7.11338 5.38871 3.16857 -3.98627 -0.528276
1878 2 16.0974 5.43649 7.2237 -1.94882 -1.89017 -2.34957
1937 1 14.2317 7.08069 7.25335 -3.48937 -2.70568 3.14906
1938 2 16.0245 8.85129 7.10923 -5.00907 6.7886 0.881019
1043 3 17.7798 8.86249 5.33831 0.783831 0.476426 -1.62596
1039 1 14.3678 8.86241 5.371 -4.58061 -0.100515 2.59389
1941 1 17.8072 7.18974 7.28107 -1.9152 -0.315667 -1.20227
983 1 17.8127 5.37138 5.45425 -1.32451 1.26612 0.28056
987 1 21.2975 5.40274 5.36504 0.0570802 1.01731 -1.66032
1044 2 19.4938 7.18541 5.40238 1.08553 -0.638715 -0.557911
1882 2 19.8303 5.46342 7.40506 -0.468995 0.75207 -0.522868
1945 1 21.5608 7.30101 7.03329 -0.866447 -1.61713 -0.894863
1887 1 21.7093 5.55363 8.82184 -0.54569 0.139562 5.49246
1944 2 19.7398 7.27535 8.80534 3.23583 2.98429 0.68404
991 3 25.0265 5.55083 5.25355 -4.50042 0.342591 -3.65527
1048 2 23.1519 7.23366 5.45712 2.29342 -1.74955 0.753093
1886 1 23.2181 5.44832 6.99734 2.60144 -1.56773 2.07256
1949 2 25.1447 7.34311 7.14491 -1.1229 2.00675 0.893294
1948 2 23.2632 7.3508 8.85498 -10.1032 3.39574 0.41623
1891 1 24.9536 5.38808 8.80419 0.457415 0.163912 1.62615
1023 3 0.14689 8.96681 5.20386 -1.12102 1.81524 0.987398
1083 3 0.0633053 12.4784 5.28638 -3.61599 1.42147 3.50406
1922 3 1.91607 8.88488 6.99942 1.41037 -0.735883 -3.65661
1027 3 3.69923 8.96663 5.31961 1.88023 -0.121966 -2.38405
1084 2 1.81291 10.7104 5.37835 0.40692 4.36919 -1.75494
1087 3 3.55372 12.5051 5.31714 4.02404 0.89664 1.38949
1982 3 1.816 12.5507 7.08383 0.901213 -0.848504 -0.0805809
1985 3 3.54401 10.6846 7.08459 -0.209023 -1.40446 1.81797
1981 3 0.0940176 10.6083 6.97344 2.39031 -2.05691 -1.55549
1987 1 3.59059 12.5673 8.85393 4.3902 0.297466 -0.23433
1031 3 7.19379 8.94082 5.31312 -2.83481 -0.923547 -1.25882
1926 3 5.35451 8.89341 7.08319 2.1692 -0.770816 0.0340502
1088 2 5.39026 10.7313 5.24712 -2.51199 0.816584 1.79373
1091 1 7.24907 12.696 5.36507 -1.28868 2.70295 0.247271
1986 2 5.36058 12.5798 6.95356 3.21569 2.75446 -2.27966
1989 3 7.08172 10.8287 7.06676 2.64105 -0.14092 -0.720939
1992 3 8.775 10.7301 8.78136 3.55162 3.20298 -2.09835
1930 3 8.95066 8.8882 7.05933 2.70831 -0.804493 4.44551
1990 3 9.00581 12.6848 7.14172 1.25282 -3.47385 -2.06397
1035 3 10.7455 8.92448 5.35041 0.625803 1.70011 1.86822
1092 3 8.95437 10.7285 5.39267 1.47776 1.96746 -2.35219
1934 2 12.6463 8.88635 7.17408 -3.00694 -0.0607479 -2.83686
1095 3 10.8186 12.4086 5.4959 7.53701 -1.08663 -0.132555
1096 1 12.5401 10.7779 5.40148 -3.88434 -1.18993 6.01262
1993 3 10.7365 10.6576 7.26311 -5.91309 2.22428 2.28127
1994 2 12.6129 12.5939 7.22523 -4.35894 3.32725 4.0429
1099 1 14.3149 12.4667 5.40138 3.9489 0.646606 6.48011
1100 1 16.1181 10.7101 5.40993 0.743017 -1.92681 -0.778188
1997 2 14.328 10.6812 7.11226 -1.77457 0.271682 3.29007
1998 2 15.9951 12.4716 7.20781 -3.64644 -2.92322 -0.620311
2001 2 17.6995 10.772 7.11079 2.11397 -0.0789501 1.02035
2003 1 17.5783 12.4599 8.82909 -1.13853 -0.0383647 2.39414
1103 1 17.8063 12.5346 5.42753 -2.44192 1.43651 -0.937691
1943 1 17.858 8.97929 8.81432 -1.34123 4.46722 -0.55723
1047 2 21.4978 8.9958 5.209 -2.47943 3.03933 -5.22019
1942 1 19.6591 8.96158 7.00699 0.418937 -3.22006 -1.25263
1104 3 19.5817 10.7646 5.36541 -1.99768 0.861581 -1.01251
1107 3 21.4863 12.5284 5.386 -2.15719 3.00284 -3.47306
2002 3 19.649 12.5002 7.11507 6.51099 1.27172 -1.01607
2005 3 21.4793 10.6657 6.9885 1.23705 1.18699 -1.44884
2007 3 21.2952 12.5908 8.84124 -0.255309 -2.08698 4.42406
2004 3 19.5616 10.7673 8.77776 -4.82203 0.233153 1.6454
1946 3 23.4111 9.09595 7.1473 -0.671842 0.363722 -3.97809
1051 1 25.0889 9.04735 5.20486 3.39527 3.67543 4.76162
1108 1 23.308 10.8052 5.3683 2.18628 0.171476 3.18393
1111 1 24.9875 12.4998 5.33088 0.680549 -0.489252 0.674776
2006 1 23.281 12.7157 7.19298 -2.33398 2.28359 -1.35274
2009 2 24.895 10.8799 7.08911 -5.34607 -4.85072 -2.97676
1143 1 0.103822 16.1062 5.31912 1.57471 -0.102054 4.25967
1144 2 1.63301 14.2076 5.27823 -1.55873 -0.407059 1.70389
1147 1 3.45463 15.9279 5.28782 -1.78636 3.46303 -1.19923
2042 1 1.45514 16.1176 7.2114 0.874131 -1.77463 1.284
2045 2 3.35471 14.3917 7.13242 1.8436 0.593134 0.0472752
2105 2 3.55656 17.5824 7.0163 1.51891 4.24943 0.392068
2041 1 -0.0351012 14.2077 7.16912 1.4306 -1.08324 -0.0384893
1148 1 5.25127 14.34 5.25181 -0.878422 0.785696 4.67593
1151 2 7.30527 16.0141 5.15938 -0.656289 0.17592 -1.93509
2046 1 5.39872 16.0028 6.94101 -4.87323 -1.77825 -2.38285
2049 2 7.19183 14.4573 7.12077 -2.77514 3.92921 2.64864
2109 2 7.0699 17.8111 7.18039 0.493241 -0.234222 5.55523
2048 3 5.28908 14.301 8.88035 2.15932 -0.903604 0.106871
1208 1 5.2456 17.7218 5.23667 2.78794 -0.545398 0.231048
2050 1 9.16288 16.2188 7.13776 2.534 -4.08051 -0.11558
1152 1 9.07694 14.3567 5.27845 1.67269 -0.178068 3.37937
1155 2 10.9265 16.1675 5.38013 -0.501215 -7.03315 -1.24281
1156 1 12.647 14.3041 5.50373 -2.51656 4.60215 -4.26333
2053 2 10.7768 14.246 7.17531 -0.364225 1.46519 -2.24637
2054 1 12.5521 16.0807 7.20626 -0.417623 -4.11543 -0.413604
1159 2 14.21 16.0868 5.43892 3.88159 1.70959 0.34929
1160 2 16.1883 14.3884 5.43193 -0.770822 2.64266 0.5646
2057 1 14.3239 14.3053 7.23655 -1.77912 -0.641819 8.38458
2058 1 16.0717 16.136 7.09899 5.637 -2.64258 3.36305
2117 2 14.3012 17.752 7.21019 -1.82817 -3.78985 4.06082
2120 1 15.9806 17.7525 8.87452 -2.50826 3.82459 0.259302
2061 3 17.903 14.3309 7.18233 2.04522 2.63836 -2.47683
1163 1 18.0035 15.9991 5.43749 -3.21104 0.577191 -2.88581
1164 2 19.5254 14.2282 5.33298 -0.493031 2.05894 -4.68701
1167 2 21.416 16.0694 5.4132 -0.229439 -1.66908 1.25116
2062 1 19.7444 15.971 7.21091 3.75066 0.562679 -0.950324
2065 1 21.5551 14.3852 7.11494 -4.56157 0.187104 -0.272376
2125 1 21.4936 17.6836 7.17489 2.80614 0.955052 -3.85761
1172 3 26.749 14.2865 5.3183 -0.232351 -0.932362 0.640333
1168 1 23.4461 14.4084 5.34495 0.210468 -2.19859 2.08026
1171 3 25.0786 16.2007 5.20549 -2.01588 -1.80694 -3.86745
2066 2 23.4357 16.0295 7.06915 -0.577528 2.03211 -4.17566
2069 2 25.1695 14.3887 7.14584 0.504431 1.99846 1.93166
2070 1 26.7129 16.2008 6.98586 -3.12442 0.30024 -0.418701
2103 2 -0.042275 19.6495 8.71514 1.79567 -3.19215 -1.73758
1203 1 0.195987 19.5959 5.0384 0.0753504 1.73937 6.42278
1204 2 1.93006 17.8389 5.33828 1.83915 -1.60034 -0.393492
1207 1 3.61572 19.7 5.20678 -0.54494 1.76604 -0.576796
1264 2 1.87757 21.4465 5.33482 -0.82491 2.46353 0.281754
2102 1 1.78029 19.6276 7.1514 0.853455 -0.870379 -0.722548
2165 3 3.58002 21.3594 7.14957 2.69282 -2.56122 -2.36844
2161 1 0.172308 21.4477 7.05195 2.20946 5.2029 -3.94737
1211 2 7.02066 19.5763 5.29087 -6.56377 0.164574 -2.29246
1268 3 5.33795 21.3173 5.3603 -2.46062 -3.2867 -0.76072
2106 1 5.21137 19.4739 7.10877 1.60766 -1.16749 0.367153
2169 2 7.0393 21.228 7.03421 -0.953122 -2.76772 0.405772
2110 1 8.78263 19.6025 7.11686 -0.937176 1.27319 -2.88734
2168 3 5.34318 21.5308 8.86017 -2.15467 -3.86091 5.60722
1212 1 8.8096 17.8312 5.18954 -1.48618 0.871576 -2.58086
1272 1 8.86414 21.5146 5.32012 -2.85712 2.69614 1.02608
1216 1 12.6293 17.9675 5.44403 -1.50278 -1.03276 -1.78862
2113 2 10.6442 17.9809 7.18255 0.475127 -1.77908 2.05294
1215 2 10.7443 19.7503 5.42633 0.28866 -0.728484 -1.04255
1276 1 12.4545 21.5058 5.56541 -1.73898 -2.18685 -0.984989
2114 1 12.7109 19.4504 7.17259 -2.34801 1.97501 -0.465871
2173 2 10.6644 21.2427 7.18746 -0.305125 2.38483 2.96461
1220 1 16.1493 17.9835 5.44581 -0.290456 -2.03219 -3.58997
1219 2 14.4535 19.6476 5.56421 2.85985 -1.17634 3.97903
1280 1 16.0642 21.544 5.40611 1.04361 -1.25741 4.00032
2118 1 15.9815 19.5701 7.40821 4.69215 -1.43799 2.57579
2177 2 14.287 21.5523 7.14645 -0.762511 -1.91104 -0.72336
1223 2 17.7417 19.5815 5.40974 2.93495 -0.984697 -3.27512
2121 2 18.0669 17.8689 7.22379 7.25994 -1.16476 -2.29776
2181 2 17.851 21.3643 7.11133 0.263541 -0.656798 -5.15652
1224 2 19.7844 17.8406 5.51765 -0.340332 -1.98604 -2.71682
2123 1 18.0552 19.794 8.80026 0.360381 -0.712071 -0.0668295
1227 2 21.5354 19.5432 5.35257 0.835643 1.95626 -3.65984
1284 3 19.7572 21.6037 5.38522 3.58169 -2.03693 -0.615953
2122 1 19.8414 19.6982 7.02119 2.38193 0.172283 2.57683
2185 1 21.5776 21.4337 7.14064 -1.59679 -0.490256 2.99718
2184 2 19.7287 21.4817 8.85599 -4.49206 -2.22622 -3.35775
2129 3 24.8992 17.9089 7.11625 2.3407 1.49855 -1.29955
1228 1 23.1758 17.9657 5.46655 -2.68147 -2.5726 -1.12535
2130 3 26.7419 19.6492 7.17015 0.790509 -2.89463 -0.0469294
1231 3 24.8991 19.6374 5.16963 2.67396 -1.89221 1.45656
1288 3 23.2187 21.2527 5.26252 1.70164 -0.143791 0.650719