ITEM: TIMESTEP
180000
ITEM: NUMBER OF ATOMS
13500
ITEM: BOX BOUNDS pp pp pp
-5.4541159589010846e-02 5.3574541159563452e+01
-5.4541159589010846e-02 5.3574541159563452e+01
-5.4541159589010846e-02 5.3574541159563452e+01
ITEM: ATOMS id type x y z vx vy vz
7 3 3.59449 2.02127 1.79778 -2.11567 -2.03089 -1.97467
64 3 1.80875 3.78902 1.65203 0.493403 1.20717 -2.1902
902 2 1.66275 1.90027 3.54939 0.11547 -1.25307 -1.01058
965 3 3.4386 3.76844 3.41474 -1.9172 3.46756 1.89541
905 3 3.44966 0.184603 3.50544 -5.0651 -2.25211 4.73926
4 3 1.82007 0.262922 1.68936 2.71363 0.587322 1.07314
901 1 -0.0189383 0.263137 3.63293 -4.44509 -1.43451 -1.49426
3 3 -0.0315182 2.0697 1.67595 -0.160818 -2.91912 0.234995
961 3 9.45127e-05 3.93564 3.53945 -0.551147 -0.567385 0.927766
1 3 0.0345985 0.165415 0.0960865 2.34483 -1.16808 0.24225
11 1 7.17898 2.05741 1.66509 0.90657 0.712761 -1.79132
68 3 5.35167 3.77461 1.70593 -0.591108 4.24646 1.79117
906 2 5.31367 2.21054 3.56451 0.74932 2.14915 -3.49608
969 2 7.23057 3.58922 3.55756 -4.00902 0.175454 -1.37979
909 1 7.09332 0.28145 3.45075 -1.46814 -2.42816 1.56258
8 2 5.47815 0.180511 1.80542 -0.965752 -2.16171 2.63988
12 2 8.8751 0.174956 1.69712 1.85756 3.657 1.49203
910 1 9.03693 1.89849 3.57111 1.45559 1.15181 -0.407633
72 2 9.08672 3.73182 1.8045 -7.53506 -1.19887 1.09682
16 1 12.5619 0.314001 1.65826 -1.76728 -0.514528 3.5931
15 2 10.6273 1.96025 1.68864 0.594184 -3.91138 -3.49459
76 2 12.3969 3.73789 1.91005 1.58364 -1.41461 -3.77231
914 1 12.5868 2.00993 3.601 -0.585311 -0.225975 1.37658
973 1 10.5266 3.83489 3.72129 2.86225 1.90499 -0.652697
913 1 10.719 0.1289 3.47979 -0.834521 0.970856 2.88492
14 2 12.4361 2.07331 0.0313798 -2.91364 2.242 1.28249
19 1 14.3753 2.04277 1.72942 -1.48257 -3.02755 1.12851
80 1 16.0604 3.88474 1.63327 0.195072 0.902366 0.042099
918 2 16.1229 1.92225 3.61445 0.320521 -0.903618 5.62872
977 2 14.3672 3.57336 3.63942 -4.78396 1.73386 -1.23158
917 2 14.2382 0.292695 3.54376 -2.07865 -0.186572 0.960269
20 1 16.1841 0.237744 1.86213 -2.18174 -0.36741 4.35502
17 2 14.3051 0.200952 0.0469159 2.56987 2.24587 2.37362
23 2 17.932 1.98866 1.76242 6.64431 0.872455 -1.27087
921 1 18.0566 0.265653 3.47088 -2.49886 1.59951 -0.120389
981 1 17.9399 3.87587 3.43177 -0.0428165 -1.84303 -3.10679
27 3 21.4586 1.99654 1.68882 -3.92757 -1.76632 1.46194
84 3 19.839 3.93447 1.58455 -1.18148 0.493149 -2.65446
922 2 19.7123 2.11709 3.53638 2.95267 -1.67106 3.85266
985 3 21.4563 3.92349 3.38953 -0.517439 -0.190419 -0.364371
24 1 19.752 0.0829247 1.70422 0.87133 -2.36232 -5.04751
925 1 21.4821 0.16697 3.44956 -1.78036 1.74297 -4.1771
22 2 19.6799 1.95427 0.0776306 2.58826 -3.57296 0.186401
25 1 21.544 0.224713 -0.0188122 2.13218 -3.9165 -0.0303699
21 1 17.9748 0.379426 0.0330751 5.22666 4.46571 1.20321
85 3 21.5836 3.85026 -0.0134901 1.06056 2.49519 1.3248
31 3 25.0969 1.98708 1.69493 1.76263 5.67862 0.184706
88 3 23.3152 3.7637 1.73234 5.16861 4.20073 6.00225
926 3 23.1713 2.06706 3.5189 -0.97662 -1.85953 -2.34287
989 2 25.1189 3.81724 3.40773 -2.74448 -1.4699 -0.234249
929 1 25.1242 0.15845 3.52882 0.682321 3.95751 -0.279159
28 2 23.4431 0.165879 1.83624 -0.483627 1.67906 3.5252
930 2 26.7329 2.06661 3.5585 1.10221 -0.58045 2.95788
29 3 25.0036 0.22726 0.0224209 -1.83283 -0.559741 3.76807
67 1 3.53886 5.53948 1.57628 -2.83072 0.5128 -1.01696
124 3 1.8399 7.47905 1.8108 1.56126 -1.76793 0.844259
962 3 1.67658 5.6252 3.52353 -1.63536 -2.93382 1.38715
1025 3 3.63528 7.3637 3.46852 -2.34423 -2.60664 -1.92138
121 2 0.18573 7.41629 0.0103194 3.8142 2.85742 0.159603
63 3 0.106058 5.51611 1.72457 4.58117 3.34439 1.70319
71 1 7.18258 5.46472 1.61405 3.94148 -0.717797 2.16302
128 3 5.30473 7.43552 1.76179 -3.32627 -1.47427 1.1278
966 3 5.37628 5.57876 3.40999 -1.03889 3.38607 5.95559
1029 3 7.17555 7.41164 3.54814 -0.641542 -1.92506 -2.00328
970 3 8.81999 5.60063 3.74678 -4.66854 -0.843017 0.1209
132 2 8.88813 7.22598 1.68603 -3.38141 -4.98045 -2.43884
75 2 10.746 5.54934 1.71825 0.218574 3.98934 3.12924
136 1 12.5594 7.3511 1.79709 -2.18947 -3.68561 0.346797
974 1 12.4174 5.61382 3.61127 0.521843 1.22456 2.8411
1033 1 10.6409 7.46125 3.36513 -3.09587 -5.67947 1.47469
74 1 12.4891 5.64348 0.00855664 -1.71798 -0.274433 1.40132
79 1 14.182 5.50072 1.73987 1.3781 -1.38052 -1.0859
140 1 16.0633 7.40016 1.65743 1.96093 -3.70491 3.12232
978 2 16.0188 5.51382 3.43542 -1.158 2.71582 -3.80066
1037 2 14.3337 7.30227 3.5156 -2.33664 -2.21135 -2.27256
83 2 17.7058 5.64219 1.55838 -4.04739 -1.76186 0.0929283
141 1 17.7342 7.39008 -0.0484667 -1.09366 0.0920538 2.53493
1041 1 17.8844 7.24203 3.59731 3.45099 -1.90133 -3.29335
87 3 21.5171 5.68798 1.59405 -2.14915 3.41841 0.411655
144 1 19.6513 7.20573 1.71141 -0.441951 -2.41149 -1.68104
982 2 19.645 5.54941 3.44333 -6.13374 -0.441626 -4.4239
1045 3 21.5754 7.3797 3.37384 2.46854 -5.02011 -4.85454
91 3 25.0813 5.60668 1.58742 4.35204 -0.907761 -0.465296
148 3 23.2276 7.36888 1.5018 2.73841 3.54007 -0.171989
986 3 23.3299 5.61122 3.45321 -1.4962 0.438452 -0.436133
1049 3 25.0829 7.29843 3.33929 -0.446647 -3.1151 -3.78513
1022 2 1.98462 9.33197 3.74304 -2.92485 -4.80102 3.72159
127 1 3.65984 9.23528 1.80339 1.70213 -0.16446 1.25449
184 2 1.99278 10.9369 1.68583 3.05659 2.55917 0.832225
187 2 3.59503 12.7323 1.76829 -0.570993 -0.60595 -2.86138
1082 1 1.85798 12.5782 3.61643 2.84254 -0.353975 -0.139981
1085 1 3.65867 10.9173 3.72181 3.28709 -0.668257 -0.621924
183 1 0.0453549 12.6539 1.73743 -2.90696 -2.72367 -4.21949
123 1 0.109247 9.22089 1.79952 -0.474016 2.13868 -0.402515
182 1 1.76381 12.7315 0.121345 0.332521 1.7248 2.0269
131 3 7.22136 9.1533 1.81933 -0.0973765 -3.46952 -3.16701
1026 3 5.47394 9.35843 3.48807 -0.255359 2.04132 -3.72385
188 2 5.31425 11.095 1.82584 0.270524 0.37193 -1.01605
191 1 7.11401 12.7802 1.83462 1.55431 -3.46297 1.49446
1086 2 5.2932 12.7449 3.64138 4.3231 3.89828 -0.596291
1089 1 7.15275 11.0525 3.54577 2.63624 0.518223 2.96743
126 2 5.37875 9.04042 0.0461172 -4.64742 -2.58549 -1.65592
190 1 8.87887 12.5681 0.0176418 1.08375 -1.28778 3.4938
130 1 8.82861 9.00355 0.0943369 -2.41821 2.12605 -0.680512
189 1 7.18013 10.9113 -0.0332183 -1.69262 -2.53594 2.42916
192 2 9.0408 10.9633 1.80347 4.37931 4.15981 -2.08127
1030 3 8.93012 9.08863 3.49152 -3.50335 -1.66472 3.37334
1090 2 9.03254 12.7154 3.58914 0.690227 0.690983 -1.46928
1034 2 12.3947 9.25651 3.49495 3.02388 -3.3211 -2.51548
135 1 10.6439 9.08224 1.62642 -0.249592 0.640977 3.15655
195 1 10.7452 12.7616 1.76852 -0.886059 -1.68934 -0.595829
196 1 12.5566 11.0357 1.82818 1.98403 2.21084 -1.37499
1093 3 10.6037 10.9318 3.56472 2.45153 5.19384 -1.58616
1094 2 12.5168 12.5861 3.34973 -0.667166 -3.65354 1.13074
193 2 10.7908 10.9877 -0.0242734 -2.16671 -0.288298 1.67496
134 2 12.607 9.0999 0.00864685 -0.338585 3.94256 -2.64342
1038 2 16.087 9.10333 3.43566 3.02742 4.25544 -6.37391
139 1 14.3478 9.31444 1.66702 0.566135 0.902378 -1.33389
199 3 14.4458 12.6302 1.62704 -0.97324 -0.199254 -2.07975
200 1 16.2433 11.0555 1.84162 -0.0198279 3.76334 -2.28717
1097 2 14.3637 10.9345 3.68249 4.08642 1.0397 0.120502
1098 2 16.2175 12.8768 3.56165 -3.22105 3.50251 -6.44477
1101 1 17.8623 11.1485 3.48772 5.7897 -2.07729 2.86623
203 1 17.9758 12.789 1.78738 -0.116428 2.56828 0.3133
143 2 18.0304 9.13285 1.9914 -4.14006 0.0610023 0.892482
147 2 21.4012 9.29181 1.51385 3.19572 -1.43533 1.58621
1042 1 19.7135 9.24875 3.44854 -0.882867 1.41047 -0.880409
204 2 19.7054 11.0681 1.73179 2.60801 1.39734 -0.544043
207 1 21.6234 12.8845 1.72628 0.091097 3.92728 -0.657802
1102 2 19.8263 12.8782 3.54478 1.17742 -3.62558 1.60059
1105 1 21.5852 11.0606 3.46997 -2.52185 -0.757066 2.10615
142 1 19.7023 9.20967 0.0353018 1.87739 -2.35925 -0.363283
202 2 19.6409 12.9497 -0.0143466 0.746502 -0.389274 1.16839
201 1 18.118 11.2015 -0.0467323 -0.982372 -0.248965 1.96243
151 3 24.9676 9.02844 1.60875 5.34585 0.687129 3.1845
1046 3 23.2607 9.15112 3.29382 0.307005 -1.58029 -0.0422052
208 1 23.346 11.0429 1.66555 -1.18761 -0.0948903 -3.36667
211 1 25.0749 12.8262 1.68201 1.09884 -1.56002 0.755884
1106 2 23.3433 12.9281 3.4989 -2.75822 -0.420248 2.89518
1109 2 25.1854 11.1101 3.44484 2.20147 2.57143 -0.616514
212 1 26.6834 10.856 1.69147 -0.642773 -0.306897 1.01039
1050 2 26.7282 9.32646 3.2849 2.49727 -1.23895 -2.99932
244 2 1.85946 14.3765 1.76561 -1.41029 1.20268 -2.09876
247 2 3.62097 16.2162 1.82594 -6.29201 -3.31127 1.64946
1142 1 1.93788 16.3629 3.53189 2.9547 2.07156 1.77415
1145 1 3.51593 14.5509 3.51331 -2.95791 -1.40241 2.54785
1141 2 -0.0274355 14.6131 3.75488 -0.931661 2.02218 0.0509952
243 2 0.113594 16.0518 1.77402 -4.11994 2.12531 -1.13227
248 1 5.31717 14.4475 1.67722 -3.31135 -3.40949 -0.987798
251 1 6.91137 16.3327 1.81851 3.85178 -3.34758 3.79592
1146 2 5.33761 16.1385 3.55577 -1.32688 1.82242 1.63579
1149 2 7.13208 14.5468 3.52879 -0.562124 -4.13721 -3.28671
1150 2 8.769 16.4814 3.42896 4.73612 -2.44552 -0.807142
252 2 8.9505 14.644 1.70764 0.327241 -4.03882 0.341712
255 1 10.8109 16.306 1.68809 -0.781511 4.69068 -1.11717
256 2 12.6795 14.3321 1.7428 3.51441 2.74447 -2.94918
1153 1 10.6063 14.638 3.49803 1.78751 -1.74575 -3.56217
1154 2 12.5884 16.5168 3.59157 1.86899 -3.73715 -2.3805
254 3 12.5251 16.21 -0.0364457 -0.422632 -0.22978 -2.812
250 3 9.05398 16.5151 -0.0276553 -3.01318 -2.84875 2.09918
259 3 14.5014 16.2286 1.74768 -1.03308 0.907121 1.3871
260 3 16.1652 14.5185 1.67245 1.51974 -3.49688 -2.93507
1157 1 14.2551 14.5033 3.6593 -1.12453 3.96079 0.993229
1158 3 16.2179 16.5036 3.55416 3.31366 -1.12846 -2.60004
261 3 17.8045 14.6374 0.00339033 -2.54194 1.62381 0.748868
1161 3 17.9272 14.5684 3.49672 -0.746268 2.17761 0.539391
263 3 17.9679 16.5325 1.74113 -3.33084 -3.75164 -0.498921
264 2 19.7569 14.6298 1.68855 1.76095 -0.174614 -0.976807
267 1 21.6022 16.4286 1.62501 0.399143 0.213965 3.01906
1162 3 19.7077 16.3649 3.45614 -3.00941 -1.23827 2.64184
1165 1 21.5899 14.6165 3.34219 -0.695646 -2.19345 -1.70134
265 1 21.516 14.591 -0.016357 1.23367 -2.0592 -5.98619
262 2 19.8726 16.265 -0.0373313 -0.837874 0.523655 -0.105487
268 2 23.3641 14.6721 1.41235 -3.75429 -3.69219 -2.74173
271 3 25.0774 16.3879 1.43675 2.31556 -1.84337 1.55171
1166 2 23.2374 16.4012 3.54351 -3.92094 3.11563 3.47807
1169 1 25.0624 14.7558 3.45707 1.67669 1.57506 2.10308
1261 1 0.107461 21.8486 3.52109 -2.93805 4.53279 4.55397
1205 1 3.5348 18.1712 3.50055 -0.439096 0.253413 3.20078
304 3 1.78944 17.9629 1.66681 -0.252126 -1.43626 -3.01142
307 3 3.40525 19.9692 1.68977 1.141 0.350493 0.537193
364 3 1.75791 21.5994 1.63884 -2.27971 -2.146 -1.89376
1202 2 1.64847 19.8329 3.42897 0.0765321 2.13742 3.51328
1265 1 3.44609 21.663 3.40971 -2.74621 -0.81526 1.47052
303 3 0.0363196 19.8432 1.62456 -0.934098 1.24155 2.25662
305 1 3.65356 18.1628 0.00433558 1.60529 -1.23332 3.75241
308 2 5.16984 18.0751 1.62192 -0.475832 1.20079 -1.86106
1209 1 6.96952 18.0743 3.43761 1.41386 4.30199 -4.25096
311 1 7.06178 19.9495 1.67753 -4.67665 4.22614 -0.148217
368 2 5.43582 21.7176 1.64553 1.44544 0.0753625 2.68351
1206 2 5.32439 19.8901 3.3676 1.46843 -3.55284 -1.6106
1269 1 7.15856 21.5591 3.50576 0.237579 -0.771568 -1.95355
312 2 8.75429 18.1221 1.59792 -0.989729 1.49053 4.47041
372 2 8.89072 21.5496 1.7363 1.75904 -2.10337 3.15215
1210 2 8.96281 19.7641 3.55514 -1.10461 -1.96881 1.3822
316 2 12.6513 18.0193 1.58146 3.32008 -0.558398 -4.09674
1213 1 10.679 18.0533 3.42565 0.30359 3.53005 2.41942
315 1 10.7419 19.8646 1.52411 -0.36873 2.63012 -0.829207
376 2 12.6854 21.4423 1.84433 6.4036 3.37843 -5.87067
1214 2 12.4162 19.8526 3.45459 2.47757 2.46958 1.50209
1273 1 10.8211 21.6371 3.62759 3.52343 -5.74966 -1.79027
373 2 10.8111 21.817 -0.0316351 -0.096607 2.28912 -0.280257
313 2 10.8967 18.0444 0.109767 -0.928098 -4.45416 4.15083
1217 1 14.392 18.0921 3.52017 1.68221 -1.21371 1.66812
320 2 16.0925 18.0335 1.71928 0.81996 -3.12937 0.319933
319 1 14.3056 19.7652 1.76953 -2.59032 4.24034 -2.37651
380 2 16.1108 21.5188 1.80556 -1.26933 4.07127 0.921988
1218 2 16.0775 19.9923 3.66132 0.686141 -0.496219 -1.81202
1277 1 14.304 21.4641 3.62182 1.46527 -0.142787 1.38945
1221 3 17.9079 18.273 3.57028 4.0144 1.00426 -1.55252
1281 1 17.9531 21.6829 3.628 -1.46949 4.71376 0.456929
323 3 17.8933 20.0739 1.79646 4.28525 2.39987 3.12868
324 3 19.8227 18.0801 1.66867 0.34532 0.281397 -0.232451
1225 3 21.5994 18.2505 3.59526 -1.3723 4.67254 -4.93432
327 3 21.5822 19.9054 1.58269 5.28312 -0.143446 0.588587
384 3 19.7722 21.639 1.79561 -1.97927 -6.0995 2.17856
1222 3 19.829 19.8635 3.49975 -1.21176 -3.12727 -2.08983
1285 3 21.6398 21.6102 3.47772 -0.0434704 -3.24277 1.8376
385 3 21.3921 21.64 0.0129761 3.80241 -0.475089 5.8842
328 2 23.2883 18.1127 1.69962 -0.746569 2.01357 2.42079
1229 3 25.1494 18.0564 3.54528 1.73906 -1.93773 -0.751834
331 3 25.1094 19.8645 1.64128 2.0366 2.24939 -0.978284
388 3 23.349 21.6456 1.68527 -2.37419 -0.985712 -0.174062
1226 3 23.4167 19.816 3.55634 -0.841963 2.74003 -2.67414
1289 3 25.0649 21.6234 3.46113 1.9511 -3.67482 -2.69103
326 3 23.3969 19.9459 0.0370605 -2.39583 0.891341 6.03596
363 1 0.00362134 23.4613 1.56797 2.00633 5.08294 -4.50664
367 3 3.39106 23.485 1.76728 0.58085 -0.466316 4.08135
424 3 1.658 25.3673 1.86773 4.26962 -0.713558 -5.3784
1262 2 1.77901 23.4342 3.52798 7.52437 -3.23399 -1.17462
1325 3 3.48682 25.29 3.56636 -3.53422 -2.33897 3.43852
425 2 3.70067 25.2544 0.176293 1.39484 -6.42067 0.884149
1321 1 0.0194611 25.2434 3.51649 0.878003 2.16549 3.39736
371 1 7.13064 23.4741 1.90729 -3.49358 5.67435 1.05815
428 2 5.41463 25.3524 1.85167 -2.69183 1.64912 2.4239
1266 3 5.19469 23.3795 3.63015 2.79288 2.63228 -3.47715
1329 1 7.29165 25.3227 3.51445 -1.19435 -2.60116 0.351212
429 2 6.9159 25.2563 0.14197 1.31441 3.33796 -0.403544
370 1 8.98316 23.4584 0.077612 0.952321 0.218382 1.2364
1270 2 9.01004 23.3832 3.52419 3.4802 -2.14672 -2.54292
432 2 8.90337 25.5249 1.96052 -2.04124 4.74284 0.287099
375 1 10.7226 23.499 1.81789 -0.854677 0.227639 -1.80985
436 2 12.65 25.2266 1.82982 -6.39204 -0.400466 -0.827381
1274 2 12.4175 23.3399 3.51037 -0.512576 2.66871 -0.253841
1333 1 10.7006 25.1507 3.67197 -0.340334 -2.65781 1.23431
374 1 12.6166 23.4117 0.117243 0.583878 0.799532 0.545946
379 1 14.4059 23.4154 1.68616 -0.538564 1.41452 -2.89288
440 2 16.1291 25.155 1.69141 -1.81178 -3.69061 1.77688
1278 2 16.0426 23.2616 3.57534 -6.16781 -4.72908 1.58246
1337 1 14.2702 25.1866 3.55998 2.20132 1.70629 1.56264
378 1 16.1155 23.4618 -0.00808971 -1.14935 -0.301576 1.99448
1341 1 17.9091 25.1776 3.5452 -0.441877 0.585344 3.71264
383 1 17.9234 23.3592 1.87191 -2.30657 1.646 -3.22275
387 3 21.4534 23.5174 1.86666 0.261322 -1.81973 2.88234
444 1 19.6855 25.2674 1.81802 0.832669 -1.57439 -2.87399
1282 2 19.6948 23.4739 3.5426 0.365056 0.278602 -2.54372
1345 1 21.5256 25.2245 3.58383 -3.30664 -0.89078 3.07629
382 2 19.7859 23.6865 0.00647973 2.60557 -2.68233 -6.06805
445 1 21.5215 25.3683 0.0164456 -1.07066 -1.98055 -2.54627
441 1 17.9649 25.177 0.0237983 -0.598132 0.697989 3.38097
390 3 26.7327 23.4561 0.00944436 -4.54946 1.80372 1.53406
391 3 25.0578 23.5657 1.56686 1.50886 -1.24897 -0.446148
448 2 23.278 25.2829 1.78489 -1.35514 -1.10527 1.02765
1286 2 23.3613 23.5979 3.49927 2.22994 1.3776 0.341047
1349 1 25.132 25.2433 3.559 -3.19915 2.27359 2.22649
1290 1 26.6749 23.37 3.38404 1.25068 -1.7859 -2.40561
903 3 0.000655419 2.12201 5.43304 -1.01189 -1.18338 0.977493
907 3 3.45248 2.07423 5.09236 -0.921943 0.367272 -3.38405
964 3 1.82048 3.88876 5.24671 0.269067 1.56408 -0.536113
1802 2 1.70724 2.14867 7.12571 -2.89655 0.387273 -5.9973
1865 3 3.58292 3.84512 7.00557 1.87905 -0.401364 2.14836
904 1 1.71339 0.201517 5.41204 2.47272 -0.932198 -0.338086
1805 1 3.60557 0.471532 7.05651 1.31253 -2.65934 2.70361
1861 3 -0.0353332 3.89313 7.0497 1.15681 1.12419 4.37508
1807 2 3.38938 2.10192 8.6766 -3.56261 1.37482 1.88153
1804 1 1.67729 0.305274 8.6912 -2.95727 4.96116 -0.979781
1809 2 6.82822 0.373604 7.07711 -2.62971 -1.98268 2.34636
908 2 5.22703 0.213705 5.09513 -2.76469 3.42512 1.6885
911 1 7.09598 1.95599 5.22791 6.44674 1.38968 -2.23464
968 3 5.34749 3.95518 5.2737 -2.15757 -3.00858 0.121238
1806 1 5.33795 2.13837 6.85997 -1.54001 -1.0645 0.268814
1869 2 7.11528 3.86864 7.13512 -2.04259 3.29242 4.88754
1808 2 5.26711 0.334439 8.87703 1.31878 6.39949 4.47924
972 2 8.82111 3.77972 5.40691 -2.17221 1.48078 2.37019
912 2 8.84892 0.190875 5.18802 2.14814 -0.0932043 1.23283
1810 1 8.75526 1.96983 7.18422 -2.08004 -4.0804 -2.54217
1813 1 10.7245 0.260668 7.20278 -0.532797 -0.402327 0.0430543
915 2 10.6253 2.12185 5.57535 -0.487985 -0.584088 1.15616
976 2 12.405 3.71893 5.10683 0.168491 1.75367 -2.67801
1814 1 12.5337 2.15025 7.13674 0.496754 2.50894 3.51965
1873 1 10.6908 3.90861 7.12528 0.292169 -0.298989 0.597753
916 2 12.3636 0.29018 5.52898 2.38203 -3.0737 -0.158165
920 3 16.1319 0.168298 5.41382 -2.58141 0.369694 -2.57057
1817 3 14.3269 0.196646 7.32212 -0.0325791 0.282865 -3.40144
919 3 14.4195 1.91448 5.41914 -0.516101 2.23581 -4.58547
980 1 16.1926 3.77767 5.25272 2.38016 -2.30445 -0.40498
1818 3 16.1258 2.01265 7.17401 1.7472 3.37319 -0.0948573
1877 2 14.368 3.80026 6.94252 3.9487 3.95346 1.36869
1821 3 17.9699 0.270354 7.14418 0.580697 3.71905 0.73344
923 2 17.9342 2.09434 5.30869 -3.63813 0.272081 3.53223
1881 3 17.827 3.74296 7.15392 -0.575754 0.143942 -2.18092
924 3 19.6814 0.318112 5.2889 -1.59841 -1.29564 3.29084
927 1 21.4554 2.0456 5.29361 2.45448 -3.03353 -5.22965
984 1 19.7812 3.90721 5.20392 -1.13821 -0.160119 4.12801
1822 3 19.7018 1.93694 7.05591 0.299372 -4.65137 -2.19913
1885 2 21.5604 3.97728 7.1799 -0.0787966 2.03689 -4.01369
1825 2 21.6616 0.282387 7.01032 3.71112 -0.714694 1.89667
1884 3 19.7908 3.72643 8.8323 0.774897 -1.81867 3.12155
1827 3 21.6223 2.09769 8.75357 1.00988 -0.700246 -2.17356
1823 3 17.8754 2.01936 8.83247 -2.61587 1.31018 1.29758
1829 2 25.0753 0.325431 6.88045 1.3219 1.1911 -0.878585
931 1 24.9981 2.21579 5.31711 -3.16551 1.07715 1.2557
988 2 23.2434 3.93679 5.47436 3.19068 0.0525872 -0.218001
1826 1 23.2242 1.98971 6.96216 1.39173 -0.625036 0.899061
1889 1 25.0361 4.02094 7.20548 0.797965 0.953762 2.11368
928 2 23.2358 0.185537 5.16724 0.16241 -0.524225 2.51066
1830 2 26.6767 2.30268 6.98525 3.04642 1.6626 -3.82907
1831 1 24.9845 2.0263 8.73052 1.93628 -4.91726 5.69686
1888 2 23.3228 4.02422 8.84289 1.82066 -0.36349 -1.83753
1921 3 0.00994419 7.47576 7.16097 0.966733 -1.65063 1.87997
963 3 -0.00720085 5.67485 5.24383 -1.89178 -1.02 -1.83083
967 3 3.60943 5.70149 5.2468 4.25034 -1.39375 0.316067
1024 3 1.78468 7.39107 5.23063 -2.60413 -1.18944 3.09363
1862 3 1.91847 5.59324 7.05736 3.04066 -3.29435 1.44601
1925 3 3.6815 7.34272 7.10765 0.537299 -0.965054 -3.65043
1863 3 0.164367 5.58956 8.79128 3.65984 1.62668 0.182092
971 3 7.11166 5.68923 5.42227 -0.239907 0.193915 0.253113
1028 3 5.40732 7.44572 5.24921 3.00862 -0.651519 -0.842364
1866 3 5.35782 5.66675 7.20306 -1.48162 1.70532 -2.3803
1929 3 7.33122 7.48222 7.11468 -0.99401 0.339951 4.23472
1871 1 7.32689 5.54038 8.76045 -1.11433 0.315042 -1.57601
1928 3 5.33379 7.42612 8.81781 -1.13593 0.573049 -2.34371
1870 1 9.03086 5.62246 7.21539 -1.55316 0.322101 0.855689
1032 3 8.96614 7.40257 5.40502 2.16472 -4.22888 -1.88447
975 2 10.6141 5.5706 5.44568 2.72779 -0.370133 -1.68604
1036 2 12.4244 7.31137 5.28596 1.69752 4.57442 -3.1682
1874 1 12.6282 5.50271 7.19082 -3.48176 -1.4461 2.24024
1933 3 10.7194 7.47548 7.32646 0.0972429 -1.12331 3.16569
1875 2 10.8063 5.53061 8.79388 1.68244 -3.72419 1.82145
979 1 14.3572 5.60769 5.42486 1.40775 1.48484 3.30725
1040 1 16.1414 7.3486 5.33873 1.33453 -0.0143223 1.66341
1878 1 16.1112 5.55568 7.10153 5.01209 -1.00173 -0.527269
1937 2 14.247 7.34198 7.1828 2.19326 -1.15725 2.22175
1940 2 16.2456 7.34533 8.79034 0.775689 3.1794 4.04034
1883 1 17.8152 5.57314 8.87152 -0.503108 2.49433 1.48789
983 2 18.0821 5.42519 5.34619 1.66988 -0.0360473 3.77301
1941 1 17.9682 7.43546 6.97058 0.136077 -1.11699 -1.83125
987 3 21.453 5.63081 5.28514 3.14751 -4.6896 -1.49736
1044 2 19.8126 7.52911 5.26854 -4.02437 4.31759 1.48128
1882 2 19.718 5.6501 7.29524 3.11903 0.165687 1.42644
1945 1 21.5217 7.41453 6.92626 -5.20972 4.15 -3.45469
1887 1 21.4868 5.65995 8.83775 3.46814 -0.789851 -0.00370362
991 3 25.1751 5.72133 5.12405 -1.75261 1.34822 0.408782
1048 2 23.4361 7.52683 5.29241 1.10618 -0.378688 -2.99557
1886 1 23.2912 5.77783 7.09522 3.34226 0.911281 -0.758861
1949 2 25.0955 7.48395 7.06711 1.79854 -0.897582 -0.193266
1948 2 22.993 7.56975 8.86294 -1.29054 3.64729 3.43907
1891 3 24.9502 5.89031 8.87053 -1.93755 0.540189 1.29946
1981 2 0.0200801 10.8058 6.9524 1.71481 -1.07208 -1.94749
1983 2 -0.0120959 12.6908 8.67376 -4.3676 1.16705 1.81214
1922 3 1.95997 9.17298 7.01825 -4.95151 -3.91412 1.62623
1027 3 3.75863 9.12714 5.44074 2.37514 -3.01246 -4.18304
1084 1 1.81696 10.9737 5.4287 0.822358 -0.23663 -2.31085
1087 2 3.5443 12.7675 5.43037 2.24887 -2.67558 3.24722
1982 1 1.96405 12.7557 7.17828 -1.23835 1.8079 0.46077
1985 1 3.73413 10.9791 7.28068 3.24687 2.75872 0.986574
1023 1 0.0810043 9.09332 5.24043 -0.548321 -1.68653 0.474069
1984 3 1.77293 10.93 8.83824 0.837889 -1.65324 4.10738
1083 2 0.00911701 12.7203 5.49313 2.6889 2.40641 -1.44626
1926 3 5.39337 9.06396 7.05447 0.0108757 3.54964 0.527932
1031 3 7.35517 9.32985 5.18807 0.0729721 0.104353 -2.39851
1088 2 5.36015 11.1577 5.44505 -4.69814 2.54535 0.346436
1091 1 7.29857 12.8111 5.33903 -2.78281 -0.385613 -0.608098
1986 1 5.46016 12.7402 7.1058 2.39071 0.465811 0.459553
1989 3 7.34695 10.937 7.16817 -0.436732 -6.11096 2.06571
1931 3 7.10334 9.23034 8.84658 -3.47401 3.13228 1.24881
1092 3 9.0344 11.0248 5.43361 -3.12081 0.992415 1.60508
1990 3 8.97314 12.9669 7.24581 1.15217 3.48768 -1.95794
1930 3 8.96374 9.20034 7.24995 3.5876 -1.18809 2.06954
1934 3 12.5725 9.1433 7.12714 -2.02227 -4.24497 3.14425
1035 3 10.6723 9.2631 5.46002 -1.70118 -1.09413 1.98674
1095 1 10.8418 12.7877 5.1978 2.75712 0.658163 -0.923078
1096 1 12.4634 11.046 5.31954 -1.68127 1.79116 0.729134
1993 3 10.7206 11.0962 7.37772 6.85253 4.89584 -0.445822
1994 2 12.5814 12.7713 7.083 -2.41335 3.40484 5.62321
1995 3 10.8708 12.9447 8.88075 1.60551 0.700138 2.70863
1938 2 16.1462 9.20469 7.10661 1.81433 1.16363 -5.58434
1039 1 14.1748 9.06431 5.20356 -1.75636 -1.1532 2.44121
1099 1 14.4015 12.841 5.25406 1.58256 4.6884 -4.27873
1100 1 16.1043 10.787 5.30781 1.04916 -3.29244 -1.31481
1997 2 14.2752 11.0062 7.08951 -0.665461 -2.52936 -2.10344
1998 2 16.2056 12.715 6.9332 0.34246 1.54759 -0.0589693
1999 1 14.4719 12.8641 8.84876 -2.76563 3.78593 0.10064
2000 1 16.1597 10.8723 8.86939 -2.57152 1.12152 0.689656
1943 1 17.9411 9.16738 8.87361 1.94324 1.09135 -0.972339
1103 1 18.0526 12.8607 5.40533 -4.81144 3.81187 -1.15848
2001 2 17.9618 10.9571 6.93446 4.11296 -1.46002 -0.855644
1942 1 19.7543 9.15075 7.0024 5.41169 -3.84301 -3.34031
1043 2 17.999 9.33506 5.2528 -0.610541 -2.00931 -3.43216
1047 2 21.437 9.16825 5.01196 1.08598 0.396483 3.34528
1104 1 19.7099 11.0984 5.2524 4.42643 0.798625 0.984446
1107 2 21.4829 12.8538 5.28274 -5.29174 2.91778 -3.18917
2002 3 19.7901 12.6738 7.14797 -0.0855063 -3.38494 -2.29014
2005 3 21.4986 10.7144 6.98029 0.150298 -2.01236 -2.28806
1947 2 21.471 9.15837 8.84839 -2.4651 1.10186 -2.04344
1946 3 23.3905 9.26945 7.04708 0.730591 0.348009 -4.02741
1051 1 25.2623 9.23227 5.20153 -3.45275 -1.5234 4.1912
1108 1 23.4334 11.0009 5.10694 -0.450663 7.49475 -0.111172
1111 3 25.028 12.9102 5.31799 -1.50449 -1.95939 -0.723883
2006 1 23.2651 12.569 7.02467 2.30892 -4.61628 -1.01265
2009 2 25.1477 10.8578 7.0613 3.40274 -2.82542 -3.21969
2041 1 0.04056 14.5553 7.16693 5.55579 3.78005 -2.18203
1144 2 1.62321 14.5985 5.372 -1.38116 -3.83613 0.401965
1147 2 3.77256 16.3595 5.19877 0.528421 0.580863 2.64767
2042 1 1.73087 16.4413 7.2506 -3.31478 0.832585 3.62684
2045 2 3.57753 14.535 7.24761 2.00096 5.99388 -0.892721
1143 1 0.0143445 16.4526 5.30392 -4.56473 -4.82603 -0.999691
1148 1 5.40341 14.3883 5.47993 4.90845 0.0526748 -0.019774
1151 1 7.07454 16.3304 5.3875 3.18714 -1.66657 -2.2222
2046 1 5.13759 16.424 7.11061 -0.769436 -3.91347 0.597956
2049 2 7.05742 14.7344 7.04891 0.088706 -4.32206 1.22389
2051 2 6.97648 16.3058 8.76888 -2.6035 2.71169 -3.20833
1152 1 8.89983 14.5753 5.22031 2.70104 -1.37672 1.78551
2050 1 8.89014 16.2846 7.11604 -2.52837 0.848614 0.622293
1155 2 10.5916 16.3209 5.26224 0.0997001 -2.47106 -2.59531
1156 2 12.3319 14.6442 5.06452 -9.7806 -0.668919 -3.72216
2053 3 10.7719 14.5449 6.99048 0.463529 2.19789 -1.36432
2054 1 12.4923 16.19 7.00378 -5.90759 -1.5702 -4.25757
2055 2 11.0113 16.3974 8.78428 4.37373 -2.694 -2.91519
2056 3 12.7307 14.6298 8.80472 -1.04098 3.91661 -7.06001
1159 2 14.4002 16.2568 5.38989 5.73079 2.90987 3.4398
1160 2 16.2255 14.6567 5.29949 5.05874 0.143988 0.418159
2057 1 14.378 14.617 6.98359 0.937223 -1.31984 -3.24028
2058 1 16.2003 16.4207 7.16426 3.03121 -1.54228 2.52278
2060 2 16.141 14.6378 8.74971 0.76983 -1.5626 -0.614293
2059 2 14.3977 16.4598 8.79086 -6.3924 0.739906 -0.0829042
2061 1 17.9299 14.5969 7.14729 6.70077 -3.98581 0.0490667
1163 3 17.9077 16.5178 5.30424 -1.45436 -5.64799 0.798224
1164 3 19.7749 14.586 5.29075 -1.44397 -0.277341 -1.22279
1167 2 21.6174 16.3269 5.39341 1.6183 1.17525 1.82013
2062 2 19.709 16.3387 6.92973 0.892655 -2.97252 -1.84904
2065 1 21.6044 14.4822 7.11069 2.03831 -3.16513 1.60706
2064 2 19.8522 14.5323 8.8405 1.35788 -4.36645 -0.420003
2067 1 21.5027 16.2282 8.68705 0.717579 -1.94144 2.27502
2072 2 26.7245 14.5661 8.79635 -0.27975 1.06554 -0.0948966
2070 1 26.6878 16.1727 7.0999 1.4486 1.53141 -0.182497
1168 1 23.2572 14.6183 5.31486 4.03533 -0.339062 1.73394
1171 1 25.0736 16.2768 5.263 -4.14021 -0.806286 0.964571
2066 2 23.4008 16.2335 6.97689 5.07962 -0.133253 1.13472
2069 2 25.0228 14.4675 7.20197 -0.788961 -3.09656 0.664694
2161 2 0.0968772 21.8667 7.07347 0.541513 -0.257976 1.60256
1203 1 0.0291492 19.8272 5.30076 1.10045 4.18316 -1.9322
2105 2 3.65609 18.2 7.23202 2.70752 -4.54145 1.39279
1204 2 1.82377 18.0691 5.3455 0.241905 -0.838279 -3.36476
1207 1 3.45559 19.9946 5.35426 0.743561 0.291567 -3.3319
1264 2 1.76009 21.6329 5.45596 2.51243 -1.56851 -3.55352
2102 1 1.72107 19.9241 7.2701 1.37931 -0.114587 5.35543
2165 2 3.66581 21.5112 6.95621 2.18777 -1.54702 -0.070842
2101 2 -0.0707505 18.1067 6.91246 -8.19131 -0.813042 3.17987
2107 2 3.58015 19.8537 8.86916 5.08883 -2.02497 -2.23964
2109 2 7.21808 18.0281 7.03411 1.53086 0.106758 2.83191
1208 1 5.33084 18.2446 5.2787 5.39929 -2.40525 2.94777
1211 2 7.2235 19.8921 5.29607 -3.39445 -2.74632 -0.820247
1268 3 5.4536 21.6874 5.27447 2.11504 0.101412 0.512561
2106 1 5.48921 19.8934 7.126 -1.29062 1.16864 -1.82822
2169 3 7.16323 21.7403 7.18973 -1.00506 1.24228 -3.94717
1272 1 8.83024 21.7141 5.3386 4.18668 1.6238 0.84542
2168 3 5.40529 21.5652 8.84771 1.52491 2.24176 4.21682
2110 1 8.86306 19.842 7.05128 1.69771 4.44567 0.604627
1212 1 8.70368 18.0597 5.19233 -0.805045 2.47635 -2.80628
2111 2 7.14592 19.7905 8.77532 -1.3819 0.471553 -0.587008
2113 2 10.5698 18.0326 7.00886 -1.10438 -0.945463 0.295506
1216 1 12.3519 18.0755 5.45002 -1.86172 -0.00964922 4.56588
1215 2 10.4763 19.756 5.30625 1.22635 2.44612 -3.37117
1276 1 12.5859 21.6736 5.35223 1.02843 0.899043 -2.26526
2114 1 12.4262 19.8987 7.16736 -2.92803 1.93853 0.171241
2173 2 10.7159 21.5752 7.14586 2.98369 1.83689 -2.55868
2116 1 12.492 18.173 8.72115 -1.55403 -2.05617 -3.43058
2176 1 12.5282 21.6822 8.84741 2.04737 -3.21846 -2.12355
2117 2 14.3302 18.0272 7.00798 1.75553 0.605048 1.39432
1220 1 16.0998 18.2754 5.38835 2.68315 0.605552 -3.74707
1219 2 14.1813 19.9047 5.55127 -2.42165 -0.299263 0.596741
1280 1 16.0757 21.6398 5.35828 -1.83802 0.644891 -3.70746
2118 1 16.07 19.9395 7.18014 0.963387 5.18995 -2.37805
2177 2 14.2812 21.9476 7.20748 1.16872 -1.57788 -2.49704
2119 2 14.2368 19.9237 8.70866 3.83355 -2.39235 0.108298
2123 2 17.8055 19.8731 8.85372 -2.09022 -4.90863 2.93795
2121 2 17.9343 18.0385 7.23449 0.0143765 -0.498762 -0.354368
1223 2 17.899 19.9163 5.35131 -0.249409 -0.440271 1.2478
2181 2 17.9441 21.7075 7.02386 0.917833 1.61371 1.39373
1224 3 19.7328 18.1109 5.26759 3.95236 2.64536 -0.699369
2125 1 21.4702 18.1713 6.99087 -1.7076 0.955133 -4.7784
1227 2 21.5408 20.0146 5.20307 2.26815 -1.65632 -3.34505
1284 1 19.729 21.6813 5.15849 -3.34891 0.589533 -2.03062
2122 1 19.6275 19.9407 7.04496 -0.569965 -0.149262 3.21194
2185 2 21.4014 21.5945 7.03289 0.933069 -1.61571 2.603
2184 1 19.4907 21.7705 8.84376 3.28208 4.65868 -0.217006
2129 2 24.9608 17.9792 7.0996 -2.17384 -2.09214 -2.90842
1228 1 23.3348 18.1695 5.4632 -1.92449 0.233631 -3.83723
1231 3 25.0983 19.9995 5.46672 -4.19745 3.13598 0.282731
1288 3 23.421 21.6404 5.32403 5.73851 -3.71795 3.02862
2126 1 23.3549 19.7045 7.17636 -1.23126 -3.85558 -5.10569
2189 2 25.0839 21.8924 7.2036 0.938462 3.47443 1.08599
2128 2 23.183 18.1265 8.82342 -2.24105 0.592188 2.80773
2131 1 25.0569 19.8572 8.76836 0.366304 -1.41499 1.72418
2188 1 23.3605 21.8032 8.66267 -1.72129 0.45233 0.960262
1267 3 3.38127 23.471 5.28294 1.72226 -2.81324 3.05428
1324 3 1.74607 25.4044 5.20384 -0.907426 -0.235927 -1.18027
2162 1 1.8644 23.3513 7.23276 -1.93308 0.577389 -2.25284
2225 3 3.61263 25.2623 7.11045 -3.73849 -0.0334483 -1.8638
2221 2 0.0726736 25.1938 7.17662 -2.19852 4.56295 1.56393
1263 1 0.00995388 23.6173 5.42398 0.544695 -1.41076 1.01143
2224 1 1.8148 25.337 8.81638 -1.77128 0.869516 1.78668
1271 2 7.19001 23.3906 5.25367 2.62362 -3.71465 -0.843048
1328 3 5.42293 25.2548 5.23074 -0.956356 1.8595 0.615442
2166 3 5.26982 23.4084 6.93976 -4.06229 -1.47309 3.08208
2229 3 7.16652 25.18 7.12404 -0.12339 -1.94831 -1.069
2170 3 8.99888 23.5663 7.33218 3.15086 0.0634427 -0.0863978
1332 3 8.99974 25.1139 5.41089 1.80012 0.402224 -1.56292
1275 2 10.8447 23.4097 5.52507 -2.33255 1.0558 2.32692
1336 1 12.5806 25.2083 5.31094 1.6589 -2.37417 4.11649
2174 1 12.4628 23.4129 7.14135 2.19862 3.84594 1.53689
2233 3 10.752 25.3066 7.14651 -4.9586 2.63602 2.94915
1279 2 14.1986 23.2777 5.22697 -4.43186 0.076664 1.07193
1340 2 15.9704 25.0099 5.19251 -0.238226 -6.57675 -0.517619