ITEM: TIMESTEP
40800
ITEM: NUMBER OF ATOMS
13500
ITEM: BOX BOUNDS pp pp pp
-5.0310596280624509e-02 5.3570310596274652e+01
-5.0310596280624509e-02 5.3570310596274652e+01
-5.0310596280624509e-02 5.3570310596274652e+01
ITEM: ATOMS id type x y z vx vy vz
7 3 3.76382 1.83271 1.8528 0.177371 2.04766 -1.62845
64 1 1.72852 3.55305 1.91087 2.38665 -2.1351 3.55859
902 2 1.8866 1.70352 3.48565 -2.38275 -2.4365 -0.206885
965 3 3.66919 3.51453 3.66408 -5.45363 0.0870144 -1.66258
961 2 0.0700535 3.37462 3.54014 2.48665 -2.56799 1.25798
2 3 1.80714 1.80755 0.00275932 1.56647 -0.0492088 0.0286151
901 1 -0.0350644 0.0927562 3.36497 -0.645196 3.34829 4.00846
3 3 0.0341481 1.81023 1.57835 3.10383 1.28291 -1.1655
4 3 1.95668 0.0812603 1.7612 -3.16228 4.50401 -3.14879
11 1 7.32874 1.87044 1.7819 -1.71437 4.42761 -2.53842
68 3 5.35932 3.56408 1.71688 -0.325885 1.07975 -2.16344
906 2 5.487 1.69387 3.53152 -0.970489 0.314104 -2.98924
969 3 7.17233 3.79608 3.54505 -1.10373 -2.29174 0.281991
8 3 5.34103 0.0399643 1.74843 -3.8503 -3.85452 0.881618
69 2 7.27484 3.65483 0.0742092 2.34693 3.30902 -0.0241301
9 2 6.99767 0.0397447 -0.0193428 4.91653 4.58102 2.81243
72 2 9.00144 3.56186 1.72099 -4.20294 0.227975 -0.345312
910 1 9.01396 1.69882 3.41842 -0.785258 0.592238 -0.0616083
15 2 10.7015 1.90656 1.5719 0.90227 4.66863 0.0212696
76 2 12.3465 3.55699 1.86332 1.70415 1.43311 4.31718
914 1 12.5544 1.80129 3.51604 0.342292 1.44034 -4.25486
973 1 10.6347 3.64102 3.5221 -1.93205 4.80003 0.797711
16 1 12.4163 0.101854 1.69214 0.929664 -1.81661 1.0559
13 1 10.727 0.0470043 -0.042124 -1.4775 0.0731134 -1.17369
19 1 14.1492 1.77171 1.73426 4.58783 -0.575621 -1.5645
80 2 16.3067 3.53496 1.79443 0.287464 -5.01092 0.0874404
918 2 15.8287 1.67306 3.51177 -4.26987 -1.50436 2.29089
977 1 14.2221 3.5944 3.42515 0.266184 1.45036 3.96521
917 2 14.0157 -0.0427325 3.60864 -2.83325 -3.21831 -0.0731803
18 2 16.046 1.6772 0.0710367 0.52559 2.22965 0.862759
77 3 14.3231 3.61163 0.00520713 -2.2108 1.09037 -2.83968
921 1 17.7848 0.00494352 3.57133 2.51668 -1.93275 -2.4956
981 1 17.7413 3.4905 3.72604 -1.77801 -3.33309 1.00264
17 1 14.3312 0.0925222 -0.0293892 3.88224 2.73211 0.299878
20 2 16.1344 -0.00550429 1.89182 -0.229008 0.185461 -3.115
21 1 17.9851 0.0214709 -0.000120552 1.45684 0.101923 -4.01225
23 1 17.8937 1.63378 1.78725 -1.25978 3.18954 -1.38411
27 3 21.3783 1.71619 1.7696 2.19628 1.09809 4.42869
84 1 19.4936 3.4818 1.90484 1.34614 2.01942 0.459813
922 1 19.7163 1.62731 3.52049 1.87327 0.273945 -0.476577
985 3 21.3803 3.62204 3.55263 0.249888 -1.60436 3.15128
22 2 19.672 1.87918 0.0700729 -0.957282 -0.746871 -3.90455
31 3 25.03 1.78583 1.82785 -2.55417 0.369372 3.25922
88 3 23.127 3.4905 1.68536 2.5563 -2.45236 -2.77439
926 1 23.0152 1.76557 3.74575 -0.37656 -3.12461 -0.937858
989 3 24.8885 3.52951 3.61922 -1.0221 0.795554 -1.66414
28 3 23.1343 0.010245 1.77897 1.43404 -1.44914 -2.43451
92 3 26.6872 3.61549 1.88491 4.21387 2.86012 -1.30594
89 3 24.8735 3.67065 -0.0448486 4.60223 -1.69535 -2.05628
32 1 26.6881 0.0534707 1.69064 7.09968 0.665801 1.47129
930 2 26.7269 1.59093 3.50083 -5.56057 1.59347 4.20972
63 1 -0.0279052 5.26497 1.83053 1.13797 -2.82372 -0.0634151
67 3 3.57849 5.34528 1.80676 -2.46739 2.67239 -0.793974
124 3 1.80424 7.10445 1.76265 -0.698875 -1.32103 -0.747757
962 3 1.78146 5.24054 3.57663 4.3067 3.50111 -6.16765
1025 3 3.7506 7.13854 3.55969 1.20597 -3.74489 2.25817
123 1 0.0587175 8.88676 1.7729 1.16896 1.17635 0.645019
125 2 3.67569 7.15498 0.000526496 -1.31389 -5.08316 -0.269432
121 2 -0.0498513 6.94474 0.129439 -1.97323 -2.01835 1.59204
62 2 1.92716 5.38654 0.0559427 -2.70228 -0.238006 0.857404
122 1 1.90517 8.88247 0.0246418 3.41917 -2.11468 -0.340196
71 1 7.09693 5.42405 1.61039 -1.4399 0.419554 0.291606
128 3 5.37635 7.23737 1.71423 -0.49547 2.28694 -1.86903
966 3 5.37079 5.35109 3.58134 -4.67818 -3.46277 3.44205
1029 3 7.03848 6.96698 3.64266 3.74049 0.722391 -3.04475
129 1 7.27854 7.23465 -0.045833 -0.913433 2.53954 -1.47115
132 3 9.02537 7.17777 1.8678 -1.03988 0.483702 0.299141
970 3 9.02223 5.429 3.53689 -1.46882 2.51738 3.29141
75 3 10.8054 5.37616 1.81025 1.1318 -2.57707 1.73254
136 3 12.4944 7.18494 1.80702 -1.5375 0.0492356 -1.13026
974 1 12.3619 5.31783 3.5265 0.291986 1.91128 -4.38853
1033 3 10.7211 7.19049 3.53541 -0.363959 0.216927 3.449
74 2 12.6675 5.34326 0.116755 1.53116 -0.432602 -3.2192
70 1 9.07784 5.5333 0.0799373 0.43063 -0.459611 -1.07741
1034 2 12.5555 8.84473 3.50757 -3.93891 0.604768 -0.920127
79 1 14.212 5.27796 1.90876 -3.98321 1.99471 -2.05698
140 1 15.991 7.2114 1.87898 0.719155 4.29922 -2.24282
978 2 16.0275 5.55092 3.74466 -2.01526 -0.271585 -4.76102
1037 1 14.3208 7.29553 3.51448 4.83366 -2.80827 2.86454
137 2 14.2873 7.18248 -0.052914 -3.17742 -1.31622 -2.20288
78 1 16.0741 5.44203 -0.0110313 -0.426005 0.495697 -0.79914
83 2 17.7427 5.386 1.76668 1.51277 -3.1244 3.09654
138 2 16.1644 8.84191 0.107226 -1.19703 -1.59164 0.00574099
1041 1 17.7491 7.18515 3.4706 -3.86297 -2.24583 -1.70518
87 3 21.4147 5.4941 1.8121 -2.09119 -3.96113 -1.54162
144 1 19.5789 7.05787 1.76452 2.53819 -1.62072 0.00476868
982 2 19.6289 5.32055 3.52209 2.55278 0.668166 1.11337
1045 3 21.3569 7.20133 3.62161 1.03063 -1.01171 0.969104
82 1 19.7144 5.29058 -0.0354912 -1.19254 -2.1826 -1.98024
145 2 21.2706 7.23994 0.080427 -3.24462 -1.03978 0.129044
141 1 17.9379 7.09173 -0.00141683 -1.51674 -0.43534 0.34103
91 3 24.8559 5.36574 1.76451 -0.760035 2.26105 -2.35596
148 2 23.0394 7.22373 1.65054 -1.789 4.24899 2.04122
986 3 23.2153 5.33208 3.52765 -1.7154 0.644683 2.29015
1049 1 25.0234 7.16134 3.52953 1.31033 1.8786 0.846225
149 3 24.9763 6.97688 0.0766349 -0.961151 -0.900968 -2.61749
1022 3 1.81167 8.92605 3.44089 4.28179 -1.76461 -5.16633
127 2 3.68933 9.01776 1.86844 -1.71726 0.512959 -3.4328
184 2 1.82212 10.5944 1.50943 -1.10289 1.51837 0.920169
187 2 3.56972 12.4221 1.60774 2.909 2.65105 0.15909
1082 1 1.86315 12.237 3.42669 0.944861 2.40084 3.89839
1085 1 3.54735 10.6947 3.52236 -3.06043 0.953586 1.5891
183 3 -0.0289607 12.5147 1.73111 -4.80016 0.258781 2.55918
182 1 1.7143 12.5777 -0.0449412 -1.0421 1.14181 -1.28789
1030 3 8.83939 8.92377 3.75519 -0.984092 2.04323 -1.62331
131 2 7.2398 8.99784 1.90271 0.47986 3.71735 -1.26625
1026 1 5.43463 9.06747 3.63934 -1.4968 0.904071 0.309373
188 3 5.39695 10.6277 1.72141 -3.28045 -0.851541 -1.17825
191 1 7.11258 12.3721 1.66064 4.04398 -4.45871 -4.16226
1086 2 5.4757 12.4166 3.50473 1.79452 -1.3986 -2.38908
1089 1 7.19301 10.62 3.64256 4.41376 0.470163 -5.53338
192 2 8.74609 10.7227 1.85079 -0.804681 -3.43278 -1.50797
1090 2 8.87695 12.5526 3.4925 1.79664 -3.16688 0.878793
130 3 8.954 9.07791 0.0648698 -0.822775 3.9455 -2.25497
135 3 10.679 9.02971 1.67206 -0.0898108 0.209996 1.3389
195 1 10.762 12.5059 1.68271 3.99436 1.36763 2.22313
196 3 12.4365 10.8572 1.81323 1.62051 -2.49376 -6.61213
1093 3 10.6784 10.6072 3.39047 -1.98948 0.815589 -0.337391
1094 2 12.4314 12.7448 3.67412 3.28881 1.87128 2.66047
193 2 10.6417 10.9013 -0.051562 -1.94607 1.97613 -1.3227
194 3 12.5562 12.5923 0.0700778 1.5942 -3.33101 1.92381
190 1 9.00034 12.3807 -0.0267089 -0.823964 0.0327842 3.0188
1038 2 15.8941 8.98794 3.41949 -2.82943 -2.98261 -0.842429
139 1 14.2928 9.01993 1.71924 -0.802954 -2.29801 -2.65374
199 3 14.2517 12.5572 1.70763 1.47803 1.05267 -0.088066
200 1 16.1727 10.9177 1.74163 2.04697 0.747253 0.454446
1097 3 14.196 10.8614 3.3822 2.79589 -0.00384597 4.04993
1098 2 15.9893 12.5804 3.63718 -3.14374 -0.732544 -0.892611
201 2 18.0333 10.7982 0.00988557 4.83235 2.75835 -0.466177
147 2 21.3611 9.10108 1.8738 2.68924 4.00823 3.63777
143 2 17.9449 8.9043 1.81093 -2.6318 -0.0143081 2.03892
142 1 19.6668 9.06924 0.0677698 0.400328 -7.4141 -3.01556
1101 3 17.8738 10.8085 3.57187 -3.45188 0.139908 0.0785872
1042 1 19.5873 8.92972 3.5895 -0.817123 0.626401 1.62733
203 2 17.9174 12.5251 1.87629 -1.84152 1.47739 -0.458343
204 1 19.6134 10.8337 1.86333 3.5137 -0.636962 3.37319
207 1 21.6669 12.6913 1.98833 -0.754157 0.91302 -2.79087
1102 2 19.7855 12.4983 3.51347 0.65312 -3.38041 -5.2167
1105 1 21.3017 10.7602 3.68582 2.91426 -1.01455 -1.98903
205 2 21.467 10.7797 0.166884 -0.900283 2.35419 2.81754
202 1 19.8007 12.5514 0.0709734 -4.3893 2.05178 -0.98721
1046 1 23.3371 9.02025 3.37097 0.880413 -3.38773 -1.92876
146 1 23.0846 8.96385 0.0301023 0.917728 -2.57738 1.55156
151 2 25.0902 8.90205 1.83154 -0.929779 -1.75527 2.47168
208 1 23.1059 10.8274 1.89296 2.99323 -4.85226 -2.51035
211 1 24.8971 12.6318 1.78368 -1.48543 2.85967 -1.60991
1106 2 23.2873 12.6312 3.79155 -0.763601 -0.139756 -5.35036
1109 2 24.9451 10.8194 3.70138 1.1102 0.455735 -2.06839
209 2 24.8926 10.7806 0.0402923 -1.18977 -3.48378 -2.5629
212 1 26.6809 10.7828 1.75219 2.77575 -0.639453 0.0592166
1110 2 26.7004 12.3356 3.5055 3.30003 -1.74291 0.434324
1141 2 0.0658964 14.0231 3.59314 -5.86341 2.2561 -3.15663
244 3 1.75162 14.1571 1.89182 -4.66926 4.43556 -0.361075
247 2 3.84495 15.9651 1.61735 1.40019 3.77136 3.11499
1142 1 1.7738 16.0688 3.50382 -0.519576 -0.583646 2.05643
1145 1 3.59033 14.1745 3.51299 3.12279 2.95638 3.08323
243 3 0.132259 15.8885 1.62895 0.425236 -1.55581 -2.64941
1201 1 -0.0329801 17.7057 3.40916 -0.191754 -1.23025 6.09584
301 3 0.0781085 17.7729 -0.0226503 1.12512 -1.10571 2.23175
304 3 1.8829 17.8158 1.60524 -1.51605 -3.69712 -3.49413
1205 2 3.51438 17.8139 3.61553 -1.22068 -2.57379 -0.986666
248 1 5.39942 14.1038 1.63971 1.55355 2.03603 -0.196467
251 1 7.20218 16.0184 1.84986 2.92935 -0.285041 0.712596
1146 2 5.24283 15.9915 3.51782 -1.27039 -0.64734 4.85566
1149 2 7.22075 14.1994 3.46413 -0.551394 -1.522 -1.47162
246 2 5.57573 16.0058 -0.00530991 -4.5427 0.699556 -1.68082
249 2 7.24023 14.3515 -0.0176547 -2.71918 1.8655 -1.44596
252 1 8.79035 14.1395 1.74837 -1.65245 -0.407452 3.98061
250 1 8.8257 16.1413 0.0037793 -2.84938 -2.70537 4.36722
1150 2 9.10465 16.0842 3.45618 1.5705 -3.06554 -1.69265
255 3 10.6786 16.0231 1.55654 0.83226 2.03334 1.36412
256 3 12.6458 14.3691 1.59016 -3.25063 2.43467 3.22023
1153 1 10.649 14.3325 3.42856 -0.62005 -2.84405 1.57251
1154 3 12.5266 16.1569 3.62676 -4.60038 -0.700906 -0.413854
259 3 14.3523 16.2232 1.62597 -4.84977 -0.755273 5.33859
260 1 16.1893 14.2904 1.80645 -0.399346 0.636736 2.32567
1157 3 14.3596 14.3716 3.5136 -1.26752 -3.32604 -0.719681
1158 2 16.145 16.0637 3.5302 -5.05317 1.04336 -6.4935
320 2 16.2976 17.7801 1.80717 -4.59574 1.53849 1.41594
1161 1 17.6633 14.2627 3.60477 -1.97332 2.45238 2.13246
257 2 14.4802 14.2794 0.0292587 2.54426 2.22273 4.30129
263 1 17.8864 15.9709 1.85857 1.09171 4.27577 -0.974911
264 2 19.5547 14.2393 1.76471 2.91239 1.31309 2.53142
267 2 21.3007 16.0579 1.77814 1.55076 0.56885 2.91364
1162 1 19.6067 15.9908 3.59082 1.55001 -1.6737 3.15215
1165 1 21.3767 14.3857 3.74254 -1.48404 -0.381547 -1.89213
1225 1 21.4111 17.7654 3.65968 -2.97148 1.43878 -4.16962
265 1 21.4559 14.402 0.0824028 -4.35116 -3.32016 -2.32224
261 2 17.9216 14.3158 -0.0372175 2.00511 3.04987 2.39409
325 1 21.4516 17.8196 0.104913 1.02085 -1.15336 0.885949
1170 2 26.6218 16.1845 3.54747 1.61256 5.20698 -0.56465
268 2 23.2695 14.4983 1.81259 3.40435 -3.63266 -9.34751
271 1 25.0806 16.2892 1.75976 -0.339828 6.29103 3.87153
1166 2 23.2458 15.9682 3.64778 -1.11267 -0.889592 -0.838491
1169 1 25.0446 14.3922 3.61509 -3.80412 0.499024 0.714434
266 1 23.3188 16.0805 0.0357897 0.34751 2.19881 1.25054
269 1 25.0279 14.1749 0.101853 0.989402 3.9598 -3.13034
328 2 23.187 17.6084 1.89413 1.75097 -5.02005 0.413259
303 2 -0.0282624 19.5476 1.789 -1.4601 4.32309 -1.72334
307 2 3.55092 19.6932 1.61669 -1.7276 -1.15597 1.58797
364 2 1.68689 21.4571 1.72117 0.802339 -0.216581 2.39013
1202 1 1.74414 19.6513 3.2243 1.09182 1.7049 2.85595
1265 1 3.57107 21.3432 3.42801 0.0311523 -1.5 4.94792
1261 1 -0.0490708 21.2783 3.59021 -3.85303 1.06705 -3.63446
361 2 0.0396969 21.3941 -0.0434925 -5.13661 -1.57576 -3.3025
365 2 3.56795 21.6354 0.0309079 -1.44813 -1.28377 1.74344
1209 1 6.94838 17.9276 3.55798 -3.64443 -2.72966 -2.70545
308 1 5.23779 17.9277 1.68757 0.923535 -1.72547 1.8815
311 1 7.19973 19.5157 1.65314 0.871727 -0.489352 -1.10214
368 1 5.19144 21.7791 1.72085 1.05921 -0.0583066 0.949187
1206 2 5.38114 19.7374 3.38722 -3.40459 -3.86072 -1.13144
1269 1 6.88157 21.4963 3.45809 1.56558 1.81129 1.82732
1210 2 8.6401 19.5742 3.70912 3.87514 -4.9631 5.90515
372 2 8.69914 21.4031 1.68557 4.52962 0.917222 5.53349
309 2 7.10005 17.9081 0.0329735 1.58943 -1.41043 -1.6589
312 2 8.87502 17.9443 1.92284 0.233623 -1.66553 4.65382
316 2 12.3641 17.8307 1.73984 -0.0954727 -2.78579 -1.48942
1213 1 10.5906 17.9421 3.73187 2.46295 0.48812 2.32284
315 1 10.7248 19.6473 1.85823 -2.11054 -4.72249 -0.745019
376 2 12.5989 21.4236 1.87549 -0.491188 -2.66254 -1.98735
1214 2 12.3572 19.6478 3.59602 -1.64832 4.16911 -1.05887
1273 1 10.5836 21.4821 3.46485 2.58743 -1.20859 -3.20604
314 1 12.5949 19.6347 -0.00556874 1.3663 3.00185 -4.16884
373 2 10.6843 21.33 0.137576 1.0771 -2.52213 -2.3968
1217 1 14.253 17.9258 3.46516 4.59365 -4.18159 -2.22987
319 3 14.4737 19.5383 1.76781 -4.48536 2.86388 0.639375
380 3 16.2105 21.438 1.91912 3.59576 -2.52158 -0.686626
1218 3 16.2164 19.6443 3.66081 -4.1781 5.10825 1.3556
1277 1 14.422 21.3106 3.5908 2.81891 -2.80195 -0.58853
377 2 14.3865 21.4153 0.156355 1.94194 -1.07415 0.81168
381 3 17.7475 21.3969 -0.0500011 0.510674 0.219282 -1.19452
323 1 17.8838 19.7445 1.82838 5.31934 5.33582 -3.48356
1221 2 17.927 17.8848 3.47506 -1.85023 1.39366 1.47929
324 2 19.682 17.9163 1.96476 4.31547 2.12537 -1.51006
1281 2 17.9204 21.343 3.61374 -0.0309401 -2.62125 -0.512594
327 3 21.4746 19.5675 1.83481 -0.390774 -1.88233 5.06197
384 3 19.5882 21.4946 1.8198 0.472342 -0.814475 2.15922
1222 1 19.6969 19.657 3.67779 0.860946 -2.09749 -2.28731
1285 3 21.431 21.2435 3.60255 -2.4179 0.595403 0.45915
385 3 21.5346 21.3664 -0.0261752 -3.5683 -0.460766 -2.73558
322 3 19.7169 19.5931 0.0689385 -0.870324 2.6068 2.24797
321 3 17.9513 17.9884 0.000784504 -1.30227 -1.6012 0.791792
1229 3 24.9135 17.9461 3.48658 -4.97473 4.58937 -0.642421
331 3 25.0189 19.6554 1.78452 0.382431 0.515132 3.25531
388 3 23.0522 21.4039 1.83012 2.32682 2.18428 -1.46631
1226 3 23.2364 19.6533 3.6019 1.91088 -1.95644 2.44594
1289 2 25.0778 21.4652 3.65541 -0.197102 4.01616 0.116285
326 3 23.1371 19.5551 -0.016525 4.72738 -0.0264669 -1.0924
392 3 26.684 21.3955 1.53974 1.06003 1.8438 -1.52242
389 3 24.9907 21.345 -0.0064287 1.61726 1.7324 1.79986
1230 3 26.7338 19.7211 3.55536 -1.61786 3.13944 -1.47073
367 2 3.52142 23.4462 1.78083 1.81526 1.19102 7.59079
424 2 1.63571 24.9143 1.74748 2.90488 -1.05094 -0.0690612
1262 1 1.65004 23.0695 3.48312 0.868058 -0.131974 -4.39133
1325 1 3.55567 25.0843 3.39739 1.00713 1.66494 -0.258431
363 1 -0.045288 23.3054 1.68119 -6.2872 3.84103 1.4521
362 1 1.62764 23.0409 0.00756418 1.1099 0.383373 1.90177
371 1 7.10026 23.2637 1.73579 4.45522 5.30364 0.178559
428 2 5.33911 25.1646 1.60068 -2.4784 -2.31327 0.477782
1266 2 5.30649 23.3193 3.53349 0.797455 -2.12746 0.281463
1329 3 6.96259 25.0505 3.49598 -3.71361 0.148043 7.13331
1270 2 8.7094 23.2004 3.38992 0.663925 4.35628 0.335685
432 2 8.83623 25.1653 1.74304 1.96508 -2.99873 0.535215
375 1 10.5987 23.2013 1.74292 -0.310743 -0.42118 -5.51697
436 1 12.4287 25.0585 1.5385 -0.595064 -1.24143 -0.393414
1274 2 12.472 23.1015 3.55488 -1.20131 1.14879 -0.220488
1333 1 10.7771 24.9871 3.2739 3.26665 -1.90164 0.296006
433 2 10.6847 25.0674 0.083503 1.80958 -1.20586 1.04851
374 1 12.2324 23.0899 -0.0299878 -0.327386 0.805773 -2.01284
379 1 14.1622 23.1656 1.90776 1.24039 -0.647896 -0.805197
440 2 15.913 24.8911 1.8027 -2.08371 2.18822 2.51834
1278 2 16.2685 23.1832 3.56827 -5.2514 0.306723 -4.22947
1337 1 13.9706 24.9391 3.50671 -2.73433 -5.63671 -0.567905
1338 1 15.956 26.7509 3.49625 -1.56342 3.20469 -1.02149
378 2 16.0271 23.1693 0.0229747 1.14472 2.39838 -1.1083
439 2 14.3029 26.6463 1.82759 -6.37906 -1.86734 0.549668
383 1 17.8233 23.1725 1.61044 0.445261 1.01614 -2.63263
438 3 16.184 26.6502 -0.00624921 -2.52685 -1.85882 3.18118
1341 3 17.9266 24.9551 3.31847 2.61692 1.46422 -0.774058
387 3 21.554 23.1709 1.64081 -0.305514 1.73819 -2.39344
444 3 19.7111 24.9555 1.65076 4.52712 3.44005 -0.107536
1282 3 19.5819 23.3118 3.44155 0.294325 1.69398 1.65793
1345 3 21.576 24.9429 3.44681 -2.19663 2.14071 2.35442
441 1 17.9124 24.9601 0.089436 -2.40477 0.100638 2.82332
1350 1 26.7083 26.7407 3.27144 0.518604 -2.57612 0.953889
391 3 24.9602 23.3138 1.85061 -1.97721 3.15239 1.05131
448 3 23.0473 25.0477 1.69573 -2.65456 -1.06558 -0.787242
1286 3 23.2603 23.0612 3.5764 -2.75648 1.04465 3.22294
1349 2 24.8303 25.1822 3.51934 -0.459184 -0.989868 0.162599
904 1 1.88857 0.234643 5.17817 -2.09292 1.61174 -1.07922
1801 2 0.0703491 0.0523017 6.89887 -0.478129 -4.01551 -2.01446
907 2 3.7963 1.73103 5.26477 0.379634 0.0329069 1.37061
964 1 2.12076 3.30582 5.35974 3.5223 1.48373 -0.242221
1802 2 1.84485 1.87596 7.13473 -3.65667 1.97588 -0.834479
1865 2 3.69162 3.47528 7.19162 1.47863 -1.60336 -3.29293
903 1 0.0717821 1.9229 5.24152 -0.829209 0.653926 -3.50816
1861 2 0.0549503 3.36104 7.1398 3.47076 -2.58269 0.3275
1805 2 3.65172 0.0208202 7.07605 1.03489 -0.462764 -1.02304
1804 1 1.79703 0.0125908 8.7658 -4.12929 0.258024 2.27175
1807 1 3.59429 1.80538 8.79814 -4.92455 1.41741 0.081145
1864 1 1.73348 3.63985 8.84294 -0.312796 1.06647 -4.37917
908 1 5.55064 0.0830734 5.38009 -0.315035 -0.329212 -0.589785
1808 2 5.39331 0.0779725 8.85784 -0.187602 -1.34975 2.3196
911 2 7.40312 1.89379 5.28102 7.27732 -8.45179 0.556755
968 3 5.41301 3.60425 5.33654 -0.541151 -3.34185 -2.6212
1806 1 5.62599 1.82437 7.07557 -0.902884 3.90561 3.95364
1869 2 7.2072 3.83525 7.25773 -0.865965 0.002771 1.73938
1809 2 7.15045 -0.0318077 7.16099 4.11252 -3.3426 -0.93566
1811 3 7.3152 1.85046 8.87625 -2.87684 2.96244 -0.493521
1868 1 5.55461 3.6295 8.88493 1.82034 -2.74292 -0.210445
912 2 9.19571 -0.0186973 5.27796 -0.66351 3.97741 2.42199
1810 1 8.98124 1.78967 7.22921 -2.58944 5.51947 -0.485815
972 3 8.95516 3.67836 5.28245 -0.416434 3.02188 0.390588
915 2 10.7297 1.81709 5.21057 3.13635 -3.49893 -2.51944
976 2 12.4849 3.64807 5.21796 3.05379 -1.20155 2.63122
1814 3 12.3584 1.71301 7.0987 3.48448 2.66579 -3.13025
1873 3 10.7575 3.61579 7.07971 -2.42059 -0.0107839 0.437453
1813 1 10.7056 0.0524871 7.06902 -3.05102 1.31188 1.3592
1872 3 9.01977 3.56986 8.86421 1.70142 1.80745 0.730384
919 1 14.2499 1.6323 5.28475 -1.93801 2.08334 -2.62011
980 1 16.0342 3.44509 5.28369 1.07533 0.736591 -5.85558
1818 2 16.0049 1.84744 6.84167 -3.26621 2.65315 1.25592
1877 1 14.1721 3.40981 7.10575 -2.61668 0.427646 -4.19091
1823 3 17.7822 1.63809 8.76561 -0.114915 5.23978 -0.05166
1817 3 14.1126 0.0466921 7.15534 4.99204 -1.83793 -1.63653
1819 3 14.2097 1.79708 8.79124 0.0674198 0.0124454 2.59038
1820 3 15.9409 -0.0100606 8.71075 -2.51008 -1.88087 -0.0199983
1880 1 16.0711 3.43264 8.80065 0.377103 1.05355 -3.21236
1881 2 17.8813 3.59852 7.19779 3.07134 0.62961 0.155421
1824 2 19.6379 0.0260488 8.851 1.50777 0.172671 0.619493
923 2 17.9807 1.61006 5.34047 -3.91402 -0.443146 -3.21357
927 2 21.493 1.79639 5.42409 0.779886 0.330379 -2.86282
984 1 19.6589 3.51768 5.32793 2.55005 -0.539519 -1.00709
1822 1 19.6407 1.65953 7.11023 2.73562 -2.61274 -2.4145
1885 2 21.0807 3.53047 7.17237 1.036 1.88899 2.2053
931 1 25.0517 1.65986 5.35022 -0.0960458 -0.148848 1.45816
988 2 23.1174 3.51492 5.63254 -0.42875 1.19625 0.0444589
1826 1 23.0841 1.73372 7.05704 -6.89194 0.0679367 0.341247
1889 1 24.8617 3.56381 6.99173 -4.8509 2.10612 2.8191
1888 2 23.122 3.66262 8.8304 4.7761 1.39747 3.39811
1830 2 26.6846 1.69873 6.99147 -1.42799 0.215328 -2.24146
1831 3 24.957 1.88141 8.81068 -0.0430935 1.04549 1.62917
1892 3 26.6595 3.42033 8.81919 4.10548 1.26237 -2.43862
992 3 26.6714 3.35978 5.2375 2.57056 5.09397 0.425176
1023 3 -0.0315577 8.78164 5.2346 2.84121 2.70794 3.39867
967 3 3.66284 5.3251 5.3829 -3.53236 1.17698 2.40598
1024 3 1.66242 7.13504 5.37744 -7.16695 -1.83115 0.525338
1862 3 1.83749 5.26033 6.98895 -2.00828 0.773643 -2.15097
1925 3 3.5538 6.99937 7.20835 2.25654 -0.260237 -2.73854
1863 3 0.0197641 5.34345 8.74749 -3.46949 0.88441 3.53901
1924 3 1.82504 7.15901 8.75894 2.59231 0.303511 -0.276748
963 3 0.0414539 5.36372 5.25616 1.03408 -3.25948 4.7591
1027 3 3.53901 8.82698 5.37594 -2.46696 1.14389 -0.355761
1921 3 0.00171463 6.97432 7.0514 0.864029 1.08461 6.06244
971 3 7.21041 5.42718 5.3689 4.06582 0.661284 -3.09594
1028 3 5.38813 7.19518 5.44158 -1.5683 -6.85117 1.87266
1866 3 5.28364 5.30057 7.19978 -1.09251 2.10051 -3.18862
1929 3 7.14197 6.95825 7.20406 -5.60416 0.506131 2.66492
1931 3 7.19861 8.82464 8.7101 -1.51277 -1.59283 -6.61968
1031 3 7.1214 8.85385 5.46471 4.91251 -3.44065 2.25876
1870 3 8.96961 5.2973 7.17669 -0.831219 -1.91139 3.91418
1032 3 8.95527 7.2414 5.35314 1.70703 -1.42841 -1.8211
975 1 10.8066 5.48561 5.32421 -4.62889 1.90159 -1.54697
1036 3 12.4274 7.28707 5.25311 1.35605 2.62301 3.00881
1874 1 12.5124 5.27134 7.32132 1.2079 -5.23968 -1.10388
1933 2 10.7884 7.14253 7.08834 1.22688 0.963825 -0.363566
1934 2 12.5808 8.81492 7.17047 0.351807 3.71349 0.83728
979 2 14.1342 5.32494 5.35404 -1.04856 -2.40704 0.118596
1040 1 15.9343 7.24659 5.37862 1.30142 -0.344065 -1.96615
1878 2 16.0358 5.18758 7.06333 -3.85218 4.0706 6.26324
1937 1 14.1136 7.11543 7.13241 3.32424 4.45557 0.22496
1939 1 14.1567 8.69876 8.82489 5.42371 -1.12348 -1.77586
983 1 17.7029 5.3622 5.1884 1.06776 -0.0550615 -3.39774
1043 3 17.8045 8.88749 5.20415 5.24993 0.909724 -0.0723754
1938 2 15.9118 8.85308 7.05745 3.99764 -0.178254 0.263683
1943 1 17.8247 8.87603 8.77382 2.29139 4.67845 -3.62618
1941 1 17.8158 7.15405 7.1016 -5.73764 -4.28451 7.03271
987 1 21.4339 5.37718 5.33437 3.91767 1.85897 -3.89415
1044 2 19.4204 7.06782 5.34144 3.77938 -0.408099 3.54708
1882 2 19.6 5.51114 7.01629 -3.58636 7.13997 -1.11446
1945 3 21.5197 7.172 6.87287 3.35259 0.691092 -1.19291
1942 3 19.6451 8.75888 7.12278 -4.86376 1.74986 2.14141
1944 2 19.6873 7.09722 8.77105 4.04903 1.74005 -2.86454
1883 3 17.8494 5.36466 8.85743 1.6771 -1.10752 -2.11798
991 3 24.9046 5.46687 5.30947 -3.65411 -0.99212 3.09883
1048 2 23.3255 7.21803 5.35145 -0.318477 -3.86945 0.407282
1886 1 23.2185 5.45225 7.16118 -3.54598 1.97125 -1.91258
1949 2 24.9744 7.07204 7.23849 -0.111437 1.8206 0.994371
1051 1 24.9567 8.81105 5.29816 1.35299 2.86984 0.38491
1950 1 26.5694 8.7193 7.02815 4.41065 0.399506 1.89408
1922 3 1.74582 8.94046 7.07547 -3.58374 0.469185 -1.20644
1084 2 1.74941 10.6469 5.24081 1.36732 -2.81958 -5.61504
1087 3 3.49323 12.3508 5.33236 -6.36486 2.69468 2.38467
1982 1 1.81352 12.4504 7.28256 1.02957 3.23413 -0.36494
1985 3 3.56228 10.7047 7.22711 -2.02598 0.424957 3.82516
1984 3 1.65122 10.7548 8.88575 -2.3786 2.16336 0.132396
1983 2 0.0504308 12.4407 8.77916 -1.83973 3.01813 1.26256
1083 3 0.0950524 12.4393 5.33011 -0.885848 1.60082 2.02408
1926 3 5.33845 8.89992 7.1152 0.216973 -1.8196 5.4806
1088 2 5.39042 10.8264 5.19087 5.15338 1.57865 0.879454
1091 1 7.1218 12.6267 5.35394 -0.357243 1.82796 1.22723
1986 2 5.41853 12.5067 7.06611 -3.46676 1.69242 5.13796
1989 3 7.13895 10.7788 7.09715 1.50804 2.76834 0.0941818
1035 3 10.7165 9.00955 5.28773 -3.53827 2.27935 1.9561
1930 3 9.03407 8.92739 7.3012 0.471501 -1.7311 -0.158306
1990 2 8.898 12.5922 6.9784 -0.372465 -0.392283 -0.99449
1092 3 8.95174 10.7906 5.39017 1.121 1.23814 0.414104
1095 3 10.7656 12.4297 5.28792 -2.30001 -1.18932 -0.921852
1096 1 12.3724 10.5361 5.45161 -1.39562 0.792071 -2.67001
1993 3 10.8163 10.609 7.23055 0.524319 -1.05233 0.064567
1994 2 12.3863 12.6334 7.14526 -0.0578391 2.15967 -0.542614
1996 2 12.4763 10.6609 8.74854 0.177057 -2.09547 3.45759
1995 3 10.6659 12.517 8.8318 -1.48437 -0.446889 0.513496
1039 1 14.3004 8.89515 5.37032 -1.83373 -0.968961 -0.507929
1099 1 14.0595 12.5008 5.18312 -0.512865 1.69466 -3.43872
1100 1 16.0052 10.6408 5.29391 -8.18615 2.56873 -3.71844
1997 2 14.095 10.7514 7.03714 -3.05553 -0.812889 -2.99639
1998 2 15.738 12.4107 7.03219 -0.794131 -1.69291 1.1565
1999 1 14.1925 12.42 8.7354 -0.752837 -0.203299 7.93559
2001 3 17.6264 10.8369 7.29615 0.839904 -2.17435 2.10619
1103 1 17.7047 12.488 5.38434 4.59721 5.83808 -0.232442
2003 1 17.7338 12.6371 8.86431 -2.38165 4.11283 -0.812403
1047 2 21.2981 8.95583 5.18538 1.22903 -0.675556 1.95779
1104 3 19.4484 10.551 5.57152 2.17258 1.16061 0.57209
1107 3 21.3485 12.3755 5.51451 2.02266 8.09947 2.01158
2002 3 19.5183 12.5448 7.23287 -0.492771 -2.07949 -0.0759726
2005 3 21.2951 10.6951 7.1894 1.06288 0.36734 0.0884703
1946 3 23.1588 8.90075 7.18634 1.38184 5.28174 -4.2691
1108 3 23.147 10.6231 5.32363 -1.22227 -1.43264 0.606357
1111 1 24.9475 12.4894 5.48972 -1.34743 2.12569 -4.48103
2006 1 23.1853 12.5453 7.18835 2.2644 -0.243299 0.991206
2009 2 25.006 10.7959 7.04986 2.63608 5.28627 5.27275
2010 1 26.7042 12.4066 7.14698 0.961695 -3.68145 0.253577
2008 3 23.2399 10.7204 8.84968 1.44233 -4.88728 1.70783
1112 1 26.68 10.7567 5.24281 0.513724 2.37573 -1.45125
2043 2 0.0624371 16.0453 8.7468 4.32854 0.163737 0.0583249
1144 2 1.84693 14.1293 5.27251 3.94453 0.837884 -0.258755
1147 1 3.57112 16.0699 5.24366 -1.44367 0.366177 1.5841
2042 1 1.70462 16.116 7.05448 2.00683 6.89101 -2.40978
2045 2 3.6264 14.2274 7.10203 1.25036 0.575966 1.56524
1143 1 0.0505397 15.8955 5.22799 -0.18371 -1.6216 -1.9895
2047 2 3.47891 16.1104 8.72396 5.72722 -4.55715 2.59406
2044 3 1.72476 14.2052 8.87609 3.95737 1.68517 -3.38754
1148 1 5.31308 14.108 5.24723 3.46332 0.43998 5.53584
1151 2 7.03796 15.9736 5.00497 -2.06075 2.91593 1.34544
2046 1 5.42977 16.0309 7.06717 4.84241 -2.04011 2.90165
2049 2 7.00983 14.1429 7.15866 -1.21215 -3.91586 -3.14676
2051 2 7.12369 15.992 8.80075 -3.85512 -0.218402 3.64476
2050 1 8.79941 15.9536 7.12526 -3.30611 4.65743 -1.82915
1152 1 8.80033 14.2597 5.16165 -3.03937 1.01624 -3.28672
1155 2 10.6916 16.0071 5.44502 1.67096 3.15746 -3.54454
1156 1 12.4712 14.3151 5.26786 2.07601 5.94984 0.489431
2053 2 10.6758 14.2677 7.11265 2.96074 -0.216079 2.04382
2054 1 12.4509 16.241 7.17025 2.68924 0.0104034 4.4171
2056 1 12.5924 14.2466 8.84799 3.60663 -1.03965 -4.60789
1159 2 14.4092 16.2032 5.42174 2.34108 -1.05318 1.99143
1160 3 16.0311 14.3534 5.29341 -1.59521 0.876977 -1.14426
2057 3 14.0938 14.3494 6.89111 -1.29396 0.430661 -0.143214
2058 1 16.0237 16.1179 7.13186 1.28069 -2.79367 -0.987971
2059 2 13.9927 16.1559 8.84203 1.65357 1.0906 5.00692
2060 1 15.9961 14.3257 8.86605 2.33936 1.62908 4.56078
2063 1 17.7935 16.1971 8.84933 -0.296183 -4.0443 0.117839
2061 2 17.8324 14.276 7.23878 3.69939 4.68363 -0.0766593
1163 1 17.8344 15.9503 5.3146 0.208792 -3.35112 1.12942
1164 2 19.3606 14.2662 5.52803 -1.05948 -2.78389 -1.25133
1167 2 21.3738 15.9024 5.59264 -3.84022 1.49451 -0.169262
2062 1 19.545 16.1591 7.27875 0.222932 -1.31582 -5.82156
2065 1 21.4683 14.2826 7.16733 0.534385 0.803366 -0.565816
1224 2 19.6833 17.7126 5.22345 -2.08031 -2.47217 1.13949
2064 2 19.6932 14.4394 8.84412 3.36951 -1.09824 -5.07096
1168 1 23.1984 14.3737 5.35411 2.44259 -1.83512 -2.1824
1171 3 24.9876 16.0427 5.40689 -0.389559 -1.41475 -0.516897
2066 2 23.2697 15.9862 7.23762 1.795 0.0179256 1.40218
2069 2 24.9321 14.1701 7.30854 2.35419 -2.84471 1.64627
1228 1 23.2314 17.8118 5.48109 0.842209 2.76987 2.44522
1172 1 26.7147 14.366 5.37849 1.3462 0.136386 0.857414
2070 2 26.7584 16.088 7.11074 -0.654425 3.42341 3.01306
2105 2 3.61689 17.8424 7.0045 4.46453 1.98282 1.31724
2101 2 0.0565969 17.8896 7.00625 -5.53812 1.4242 0.946916
2161 1 0.0299109 21.4657 7.16686 -0.616404 -2.62436 0.860561
1204 2 1.63907 17.8444 5.25874 -0.010097 -1.38996 -1.83745
1207 3 3.59286 19.7511 5.26345 2.55984 -0.512984 -0.550014
1264 2 1.72168 21.291 5.20952 1.72373 -0.406413 -0.100334
2102 3 1.84039 19.6087 7.0194 -0.69827 -5.45508 -3.7697
2165 1 3.53933 21.5335 6.97714 -0.570713 -0.177529 -2.61406
1203 1 0.0490887 19.6166 5.17677 1.36029 -4.62784 -4.06281
2164 3 1.87679 21.3869 8.8557 -0.273262 -2.16684 2.00754
2103 2 0.0676435 19.8069 8.83925 3.08562 4.6109 -0.545372
2107 2 3.522 19.6197 8.84293 0.477089 -0.756958 -1.60594
2104 1 1.83334 17.9056 8.87802 -1.35033 -0.0395009 -1.0973
2109 2 7.04962 17.8679 7.07624 -1.26609 4.87062 0.869531
1212 1 8.78798 17.8728 5.30084 1.14409 1.92776 0.79872
1208 1 5.29043 17.9563 5.28586 0.788659 2.04805 -3.84456
1211 2 6.90573 19.8642 5.40841 0.268539 0.138396 -1.46763
1268 1 5.23965 21.5576 5.27262 -1.80617 -0.396935 0.785966
2106 1 5.26984 19.6952 7.11199 -5.75065 -0.358285 1.29666
2169 2 7.24346 21.5929 7.00529 -4.73225 -0.315134 -4.13636
2110 1 8.83175 19.7037 6.95305 -0.878693 -6.05866 -1.50264
2111 2 6.94099 19.7683 8.70398 3.69964 -0.0562457 -0.25276
1272 1 8.81383 21.6867 5.21001 0.709418 -3.59447 -0.611223
2112 1 8.68041 17.8911 8.6518 4.90247 -4.05328 5.27339
2168 3 5.29195 21.5243 8.79637 -0.425991 5.96691 -0.932739
2172 1 8.94018 21.6828 8.82199 -0.0840408 -1.40835 3.65274
2113 2 10.5969 17.8747 7.03321 1.80711 -2.82212 4.73405
1216 1 12.4387 17.9567 5.46218 0.645544 0.139153 -0.852133
1215 2 10.5657 19.8242 5.32205 0.787608 -0.791934 1.49714
1276 1 12.4682 21.3605 5.26097 1.84924 1.04795 2.57373
2114 1 12.4342 19.7927 6.99453 2.96052 0.891017 3.27592
2173 2 10.6506 21.5268 7.0769 4.66813 -0.111775 5.583
2116 2 12.2392 18.0003 8.7765 0.397647 2.71642 2.60246
2115 1 10.6679 19.8867 8.82633 4.32872 -4.42443 -4.61448
2121 2 17.7866 18.0335 7.27686 2.47787 -1.58868 -1.07255
1220 1 16.0366 17.9298 5.42118 3.36512 -0.611554 0.25518
2117 3 14.1752 17.9646 7.24413 -0.528689 4.08928 3.45013
1219 2 14.3251 19.6371 5.41913 -4.43145 -1.27215 -2.00014
1280 1 16.1634 21.404 5.51257 -0.031734 -0.508864 1.00284
2118 1 16.1452 19.6575 7.21033 3.24531 2.7386 2.98401
2177 2 14.3779 21.5955 7.05628 -2.3298 1.23462 -2.02257
2181 1 17.7945 21.5754 7.21618 -3.0177 1.73985 -0.68331
1223 2 17.9692 19.5768 5.52565 -0.34536 -0.924058 1.01909
2125 1 21.4727 17.8256 7.24277 4.81146 -2.02446 2.73131
1227 2 21.3892 19.3907 5.47072 -1.75166 -1.37293 -2.51577
1284 3 19.7263 21.4153 5.24274 2.42708 1.77552 2.48772
2122 1 19.654 19.5186 7.21123 1.25533 2.27512 2.6508