ITEM: TIMESTEP
13800
ITEM: NUMBER OF ATOMS
13500
ITEM: BOX BOUNDS pp pp pp
-5.2511237799357957e-02 5.3572511237797329e+01
-5.2511237799357957e-02 5.3572511237797329e+01
-5.2511237799357957e-02 5.3572511237797329e+01
ITEM: ATOMS id type x y z vx vy vz
7 1 3.67559 1.7906 1.64265 -1.93437 0.303456 4.81732
64 3 1.68401 3.45771 1.77739 3.24053 -1.44785 -0.505934
902 2 1.8239 1.75345 3.36579 1.31588 -3.30497 -2.48798
965 3 3.71861 3.6263 3.57571 4.27869 1.80013 -0.297747
905 1 3.46944 -0.0611925 3.36302 2.79148 -4.79953 -2.55574
65 1 3.63509 3.70635 -0.0327611 -3.82923 0.935281 -1.31652
961 3 0.00276228 3.49666 3.50757 -2.8662 -3.40306 3.90524
2 3 1.7726 1.58343 0.104609 -3.38361 1.32414 0.878431
11 1 7.08144 1.80757 1.65664 -3.72878 0.489287 0.759938
68 3 5.32264 3.69641 1.79295 1.11362 1.12973 -0.660057
906 2 5.23188 1.76325 3.49984 3.42663 0.0331288 1.90741
969 1 7.08493 3.426 3.42309 2.71392 -3.9094 -4.63929
909 1 7.08116 -0.013464 3.34613 1.57807 -4.17185 -1.39307
72 2 8.7387 3.3836 1.59193 2.17278 3.6812 -1.79012
8 1 5.36188 0.101009 1.6574 3.82151 -1.31185 -1.44834
910 1 8.97748 1.78329 3.49408 2.02235 -4.29022 5.25676
15 1 10.6683 1.80588 1.69186 -0.195109 3.42617 -2.65588
76 2 12.3449 3.40667 1.67391 -1.3625 0.163534 -2.36297
914 1 12.3759 1.634 3.39542 -2.33363 -0.605975 -0.0360919
973 1 10.6522 3.52499 3.46817 0.308726 0.0179351 4.91944
12 2 8.93299 0.116621 1.71596 -2.97045 1.10833 -2.19051
14 2 12.3501 1.6003 0.0187785 4.39345 4.59088 -0.631776
19 1 14.29 1.63672 1.60706 -0.656085 -0.190847 -1.66976
80 1 16.0606 3.40708 1.64918 2.15253 -0.0155185 0.122453
918 2 16.1263 1.78832 3.49771 -0.0483178 -2.72035 1.51403
977 1 14.2812 3.37962 3.49212 1.04233 -0.985282 2.30254
981 1 17.7312 3.36458 3.58227 0.206133 5.14721 1.56496
81 1 18.1294 3.32476 0.0270117 2.12494 1.95168 -1.37009
23 2 18.0885 1.66296 1.66001 1.01911 0.206398 0.258256
27 1 21.3811 1.60148 1.70073 6.06051 1.86144 -0.454889
84 1 19.6123 3.5455 1.98865 -1.60038 -0.31304 5.11771
922 3 19.6724 1.55135 3.56345 3.51232 -1.51573 -2.89828
985 3 21.4222 3.435 3.37276 1.76129 -2.64341 0.624364
28 1 23.251 0.111842 1.73339 -3.24971 -1.63022 4.44905
31 2 25.0576 1.77777 1.81257 0.309584 0.67516 -1.98265
88 3 23.1563 3.4328 1.80617 -2.05842 -0.546298 0.0791065
926 1 23.2176 1.57984 3.73791 0.691514 0.971028 1.86063
989 3 24.9139 3.56418 3.55085 0.0366697 -2.58577 1.44399
29 2 24.953 -0.0383459 0.0332991 2.31315 -1.30217 -2.85359
30 1 26.7487 1.75644 0.10248 3.92069 -1.21808 3.50899
929 2 24.9966 0.122283 3.48879 -3.65934 2.98976 -6.27394
89 3 25.0202 3.42398 0.0423127 0.676121 2.34043 3.96666
63 1 -0.0395009 5.39906 1.73321 2.12405 -1.88014 -5.9121
67 3 3.50479 5.39933 1.67309 -0.642756 1.52818 3.28556
124 1 1.52797 7.08168 1.94803 1.31917 0.661449 -0.264155
962 3 1.66541 5.38075 3.65871 -1.30238 0.897846 -2.04708
1025 2 3.72851 7.16157 3.49119 -1.32351 2.58517 0.352432
62 2 1.79424 5.28527 0.0126105 -1.18354 2.90302 -2.61578
122 1 1.82944 8.83028 0.00215071 0.0668211 0.286102 1.14718
125 2 3.46352 7.08214 0.0645853 -2.78514 3.70981 2.05344
127 2 3.53193 8.82491 1.86233 1.88296 0.508661 4.61735
71 1 7.20778 5.52108 1.60606 1.72334 0.486447 1.81935
128 1 5.35446 7.2314 1.65891 2.89358 4.65435 1.13835
966 3 5.4853 5.4904 3.48898 0.246793 -1.73419 -2.55223
1029 3 7.12584 7.15696 3.56281 4.42733 2.06271 0.102335
132 2 8.82029 7.00079 1.86594 -0.458444 0.518706 3.09801
129 1 6.99519 7.26599 -0.0224798 -2.85084 -0.571824 -0.4336
970 2 8.82466 5.00251 3.50235 4.70494 3.61662 2.97545
130 3 8.84155 8.62655 0.0743275 5.77418 -1.74 -1.97048
70 1 8.85768 5.30281 0.0141038 -1.41965 0.334545 -0.153014
75 3 10.6694 5.2672 1.79944 0.492864 -0.04743 0.156939
136 3 12.4372 7.09316 1.63036 3.60836 3.52988 -2.77458
974 1 12.3672 5.32568 3.6127 0.564136 4.97641 1.583
1033 3 10.526 7.02549 3.56008 -3.19557 -3.70743 3.07944
1034 3 12.3406 8.77877 3.50148 3.50483 -0.730062 -1.62336
135 3 10.5035 8.81691 1.79639 1.76946 -0.980532 -0.379597
133 2 10.4696 6.89731 -0.0279162 -3.19625 -1.95614 -3.10243
74 3 12.3464 5.25993 -0.0276296 -2.29688 2.10765 2.12748
79 3 14.0092 5.21873 1.73 1.13593 3.51278 -0.561054
140 1 16.142 6.85947 1.58791 2.67317 2.01237 -0.534891
978 2 15.7749 5.16578 3.39399 -2.03869 3.80673 0.338048
1037 2 14.2344 7.06452 3.54898 5.54492 -5.26686 -0.831855
139 1 14.4365 8.5687 1.72775 -1.36188 5.30431 0.105918
1038 2 16.0103 8.76805 3.35303 -4.58508 -0.976653 -0.103666
83 2 17.6823 5.23093 1.86969 -6.16671 1.35778 -0.213272
1041 1 17.7825 7.10707 3.55338 -3.88001 0.669058 0.688943
87 1 21.2568 5.27607 1.60998 1.66946 -3.64064 0.796435
144 1 19.518 6.95023 1.62984 -0.955646 0.448166 3.3899
982 2 19.5356 5.19041 3.5985 -2.98805 -0.472315 -2.5593
1045 1 21.1854 7.0768 3.54033 2.9743 2.44819 0.916671
1042 1 19.583 8.77489 3.37162 3.43715 -0.255187 2.75636
141 1 17.8302 7.09624 0.0640891 -2.46645 3.41312 -6.06154
145 2 21.4047 7.06701 0.109703 -1.3212 0.663116 -2.67369
91 3 24.9445 5.36166 1.79514 1.65035 4.49536 -0.984534
148 2 23.0235 7.1053 1.82824 1.52208 -2.21264 0.413082
986 3 23.1576 5.25686 3.44745 2.3881 -4.10509 0.197214
1049 1 25.0535 7.27035 3.49314 -0.369254 -2.45145 -3.25467
152 3 26.7083 7.16539 1.73316 3.37128 -2.61968 2.57063
1046 1 23.026 8.83719 3.61619 -4.10763 -1.58179 4.13888
90 3 26.712 5.30676 -0.033288 -0.886806 2.27927 -2.29585
990 2 26.6599 5.37439 3.30182 -4.73029 0.0797167 -2.67247
1022 3 1.80749 9.01988 3.6239 2.27126 -6.42871 -2.95958
184 2 1.78662 10.6932 1.65255 1.58841 -3.06592 3.30584
187 2 3.42155 12.5381 1.80748 -0.830537 4.06597 -0.898816
1082 1 1.60785 12.5631 3.60374 1.35372 -2.9155 -2.02134
1085 1 3.51083 10.6575 3.62426 0.140343 2.78631 0.995657
185 1 3.53039 10.7658 0.0275669 2.69176 -0.156844 -3.12747
1081 1 0.0911879 10.6727 3.48876 2.51664 0.490053 3.40064
1026 3 5.3571 8.91944 3.46367 -3.58904 3.04887 -0.601418
131 2 7.04477 9.12502 1.74799 -3.09908 -9.76679 1.64213
188 2 5.28566 10.6361 1.63019 -1.91381 4.06695 0.839915
191 1 7.12136 12.413 1.69213 4.12716 -1.68658 -2.61839
1086 1 5.39767 12.5281 3.42058 6.76844 1.82393 -0.76013
1089 1 7.14101 10.7467 3.56108 -0.975105 -2.33214 4.92035
186 2 5.3099 12.3986 -0.019294 5.11552 -3.14238 -2.58799
1090 2 8.79248 12.4805 3.44191 -0.716109 -0.273889 5.10081
192 1 8.80259 10.6574 1.67084 -1.45321 2.0878 2.40945
126 1 5.23689 9.09571 -0.0302488 1.04814 0.684504 4.87503
1030 3 8.97378 9.10531 3.7457 -0.176488 -2.71703 3.96687
195 3 10.7122 12.3113 1.82939 3.19733 -2.47792 0.639035
196 3 12.2212 10.4303 1.6438 -1.99946 -5.41401 0.0806161
1093 3 10.7047 10.6196 3.58018 2.43524 0.705021 -0.514435
1094 2 12.295 12.3652 3.57223 -2.46626 -1.56613 0.780825
194 3 12.4513 12.4179 0.118694 -0.876579 0.15102 -3.20127
138 2 16.121 8.93497 -0.0412657 1.09773 2.74994 -1.96204
143 2 17.7459 8.956 1.75639 5.90806 3.43009 1.70859
199 1 14.2149 12.1724 1.71818 1.57481 -1.53289 3.84344
200 1 16.0175 10.6618 1.71067 -0.201124 2.25394 -0.767807
1097 3 14.1181 10.5582 3.46981 9.05585 4.31555 -1.69327
1098 2 15.8964 12.2451 3.56593 -1.54881 -1.39589 4.97243
203 2 17.6871 12.4167 1.76989 1.75285 2.4452 3.88615
1101 1 17.8959 10.7744 3.38906 -3.40727 -0.942434 1.87422
147 2 21.3975 8.90338 1.90332 -2.15115 -2.96074 1.81547
204 1 19.6894 10.6919 1.68397 -0.215815 -2.55535 1.03709
207 1 21.3976 12.6525 1.74633 3.58296 -3.58271 -2.16876
1102 2 19.6013 12.4046 3.6928 -3.08133 -5.88659 -4.04161
1105 1 21.4381 10.7131 3.53967 2.9827 0.581776 -1.39399
205 2 21.2279 10.6831 -0.0514146 -0.610119 -2.45635 -4.23457
202 1 19.6415 12.4075 -0.0388524 -2.32572 -1.22341 -2.10615
142 1 19.6519 8.91801 -0.0377149 -0.0747103 -0.702837 4.12515
150 3 26.631 8.90096 -0.00797822 -1.67315 2.59225 4.99941
151 3 24.8394 8.9162 1.70826 1.70079 0.837034 -1.37011
208 1 23.2041 10.6633 1.84001 -0.299878 -1.26927 -1.80755
211 1 24.9591 12.5866 1.7359 1.80256 -3.09228 1.34519
1106 2 23.1471 12.5378 3.43068 -4.41585 -0.0685046 3.07797
1109 2 24.857 10.5218 3.44192 -0.797165 -4.98254 1.02436
212 1 26.6835 10.8128 1.77091 2.02659 3.99071 -0.0152602
1110 1 26.6695 12.4625 3.57036 4.83062 -2.09123 -4.06408
146 3 23.1073 9.04459 0.0553321 2.56853 -0.153325 -1.77992
210 2 26.7343 12.4532 0.0266987 -0.540749 0.477192 2.39705
1201 1 0.0795387 17.5974 3.40213 -2.06157 0.387486 -1.61321
244 1 1.67213 14.3534 1.6285 -0.345126 -2.94886 -0.404686
247 2 3.49955 15.8646 1.61087 -1.33668 -0.619949 -1.62368
1142 1 1.90635 16.0318 3.42554 0.739107 -0.730747 3.66074
1145 3 3.69126 14.1824 3.38022 -2.54336 -0.389004 -0.755471
1205 2 3.52812 17.6628 3.62792 0.447086 -0.764345 0.55662
304 1 1.90872 17.7267 1.64943 1.37741 -1.10226 -3.08296
301 2 -0.0286124 17.6812 -0.0393482 -2.14979 -1.58668 -1.19607
248 1 5.47079 14.1979 1.47732 -0.920109 -2.2115 -3.51175
251 1 7.15052 16.043 1.54338 -2.8585 5.12948 5.24277
1146 2 5.4129 15.9125 3.36508 2.07643 -2.04642 -0.418778
1149 2 7.11748 14.2361 3.28753 -4.66382 0.597226 -2.50826
308 1 5.33141 17.7482 1.61303 2.64995 0.29072 -0.938594
1209 1 7.19673 17.6966 3.48005 -6.51424 -3.31296 0.930452
1150 2 8.8651 16.1667 3.37885 2.80689 -1.20563 -5.51527
252 1 8.94271 14.1553 1.52186 -4.36587 0.227547 -4.054
255 2 10.6444 15.9028 1.51402 -3.06212 1.55342 -1.8992
256 3 12.3028 14.2259 1.8665 -1.64756 -1.59336 -4.15527
1153 1 10.5884 14.1452 3.5855 -3.67337 0.213225 6.49588
1154 2 12.1985 16.1294 3.45996 -0.712178 2.38603 0.690388
254 1 12.3938 16.0571 -0.0428697 2.6815 1.3682 -2.76059
316 1 12.4227 17.6308 1.77487 -4.743 4.56587 1.18686
312 2 9.05715 17.7631 1.7329 -0.498096 -2.84163 -2.26026
259 3 14.0906 15.7706 1.93844 -1.54303 -2.77176 -5.00551
260 1 15.957 14.0899 1.89489 -4.98865 1.27888 -4.53353
1157 3 14.1228 14.2486 3.70735 -0.333698 2.55273 -1.93065
1158 2 16.0843 15.9282 3.54223 -0.388363 -5.80443 -0.813627
263 1 17.7737 15.9402 1.81139 3.03977 1.6164 4.16947
320 2 15.9949 17.8039 1.60379 -0.309302 0.266048 -2.17997
257 2 14.071 14.0905 0.00202217 -2.5238 8.37418 2.2007
1217 1 14.1992 17.7041 3.39481 1.98242 -0.0569949 -2.34908
258 2 15.8689 15.6853 0.0585263 -3.19878 1.03576 1.16922
1221 3 17.8034 17.8144 3.42529 0.1878 0.445195 -5.17412
317 1 14.2196 17.5593 0.00611923 6.18682 0.288765 0.845366
261 2 17.9101 14.3202 0.0834254 -0.159377 -4.508 1.75431
1161 1 17.9737 14.2143 3.46627 0.021417 -4.446 -0.308108
264 2 19.6527 14.2991 1.63605 -1.53743 -1.05608 -2.49067
267 2 21.4054 15.8411 1.73339 0.414112 3.63946 2.27046
1162 1 19.577 15.9764 3.6515 -4.58313 1.21593 0.311898
1165 1 21.3372 14.0967 3.54279 -0.481914 6.60167 -5.21772
324 2 19.5123 17.6166 1.74207 -0.891714 -1.30859 -2.00315
1225 1 21.3131 17.6935 3.58034 -5.2489 0.211597 -1.4237
268 2 23.2343 14.2425 1.68872 0.745244 -1.17272 -4.74814
271 3 24.9562 16.0382 1.71573 2.26038 1.52738 -2.72732
1166 2 23.099 16.0915 3.6462 -0.05194 -2.99126 0.941676
1169 1 25.0622 14.2645 3.62077 -1.23268 -4.24154 -0.358156
328 2 23.0052 17.6798 1.82707 1.58219 -3.49081 -0.0274627
266 1 23.1304 16.0659 0.0041902 -0.0745186 -1.3371 -3.31925
307 2 3.70191 19.7129 1.62606 -2.24046 -1.23343 1.51586
364 2 1.87525 21.3351 1.85491 1.75392 -3.7927 -4.75739
1202 1 1.74362 19.455 3.37176 -2.65096 -3.33321 -0.675492
1265 3 3.72555 21.4743 3.49964 3.25815 -4.45788 4.01125
303 2 0.0407303 19.578 1.71003 -2.27981 2.32792 0.823885
1261 1 0.0894907 21.4588 3.62779 1.2343 -3.73481 3.52205
361 2 0.103768 21.3767 0.244818 -1.84255 -2.56506 -0.230343
311 3 7.13226 19.3934 1.80322 0.944852 3.88492 -2.26587
368 1 5.38645 21.3098 1.61727 2.61645 -0.195748 4.54788
1206 2 5.29216 19.3832 3.4678 1.97951 -3.62701 -2.98604
1269 3 7.2087 21.4455 3.51096 0.626821 0.421121 5.51064
369 2 7.31148 21.4859 -0.00168392 -6.06568 -0.979826 -0.539718
1210 2 8.86419 19.5266 3.36822 0.887647 1.32422 -1.08572
310 1 8.93692 19.6696 0.0427583 8.33155 1.27264 -2.74906
1213 1 10.7281 17.8555 3.56379 0.348007 3.72081 -5.60988
372 2 8.95967 21.4345 1.73497 5.35649 -3.48996 1.96243
315 1 10.7575 19.6479 1.79516 3.38125 -0.862891 -1.62734
376 2 12.588 21.4712 2.00112 1.69541 0.391329 -0.616161
1214 2 12.4982 19.6165 3.54608 0.96625 -1.17651 1.58779
1273 1 10.6262 21.4892 3.4549 0.150349 -3.45721 -3.57192
314 2 12.5574 19.451 -0.0486012 -2.40393 2.80077 1.5764
319 3 14.2401 19.5797 1.71252 6.34752 -3.46454 -0.692957
380 2 15.8469 21.4084 1.49312 -0.898882 8.3863 -4.05036
1218 1 16.1176 19.6198 3.54978 -1.39534 0.139264 -2.58482
1277 1 14.4705 21.4389 3.53128 -0.123511 1.15022 3.07709
1281 2 17.8097 21.5048 3.36552 0.468448 -1.51256 -8.07843
323 3 17.7198 19.5813 1.82759 0.950192 -0.291732 -2.43159
327 3 21.2888 19.5563 1.66961 -0.82632 4.36033 7.98363
384 3 19.5549 21.2662 1.65796 0.790577 -5.86642 2.72004
1222 3 19.6965 19.5178 3.36189 1.1903 -0.609672 0.0106595
1285 3 21.3284 21.3595 3.48454 -1.01414 1.89495 -4.79621
322 3 19.4819 19.5998 -0.0101897 2.01093 -0.927163 -0.851743
332 3 26.662 17.9024 1.67793 0.865936 -0.244002 1.5386
1229 2 24.9121 17.8391 3.53679 2.27258 -2.13461 0.680284
331 3 24.8748 19.4622 1.83366 3.63129 -5.39417 5.07697
388 2 23.1731 21.2951 1.81984 7.3009 1.58316 1.25389
1226 3 23.1143 19.5528 3.55631 4.66898 -0.034061 -2.38569
1289 3 24.9023 21.3918 3.4446 1.33447 3.55338 -2.16488
392 3 26.58 21.3152 1.74394 -0.800367 1.26672 -0.226659
330 3 26.6892 19.5324 -0.0133133 -1.67196 -1.20441 -1.31926
389 3 24.8712 21.3109 0.0742935 1.83048 -3.01948 0.999466
367 2 3.65061 23.1575 1.7132 0.904367 -0.498997 0.482339
424 2 2.00476 24.9568 1.9302 -1.54072 -2.55017 6.54507
1262 1 1.89543 23.2088 3.44975 0.291068 1.28605 2.28001
1325 1 3.67839 25.0929 3.60187 1.15833 -0.471851 1.95988
362 1 1.77615 23.2038 -0.00587054 -1.206 2.01632 -0.739445
421 1 0.17507 25.0208 0.28638 -0.559953 5.1263 -0.991694
425 1 3.46198 25.1424 -0.00994575 3.96101 -4.21975 -1.922
363 1 0.242001 23.1637 1.78687 3.92472 -3.71898 -1.59988
371 1 7.05407 23.2256 1.56652 0.168484 -1.43387 2.09825
428 2 5.2748 24.928 1.65552 -1.37945 -0.413 -0.112622
1266 3 5.44806 23.2614 3.57421 3.10526 0.655087 0.839877
1329 3 7.17902 25.2416 3.43805 0.478028 -1.21585 1.24233
1270 2 8.84328 23.1573 3.5165 -0.813335 -5.14205 1.7366
426 2 5.43948 26.7594 0.0415351 2.06008 0.43529 -3.44235
432 3 8.87546 24.9359 1.66142 2.89639 4.30048 -2.61836
429 2 7.24257 25.0213 -0.0186366 -2.10863 0.671646 -0.870254
435 3 10.6509 26.5951 1.73669 0.876079 -7.6579 1.58093
375 1 10.6194 23.1745 1.75606 -3.30458 -0.473663 0.672507
436 3 12.3956 24.9757 1.6281 -1.08959 -0.851574 -1.54982
1274 2 12.55 23.2899 3.62532 2.96555 -2.31346 0.657264
1333 3 10.6199 24.929 3.4581 3.68031 -0.696591 1.90105
433 2 10.7268 24.9095 0.00292167 -2.79195 -2.86679 -2.3224
379 3 14.3144 23.2927 1.75404 4.13325 1.37755 2.92668
440 1 16.0263 24.8838 1.69298 1.51033 1.96256 0.193106
1278 2 16.1958 23.411 3.48659 6.22122 0.344662 2.09102
1337 1 14.1696 25.1479 3.41844 1.5604 -1.41481 2.10053
383 1 17.7191 23.0337 1.69982 -0.615273 3.25673 1.57092
443 2 17.8066 26.6457 1.67421 1.08285 -2.42161 -0.0473775
439 2 14.0135 26.7275 1.73475 -3.34436 0.861059 1.87382
378 2 16.0585 23.1434 -0.0483651 0.505044 5.33793 -1.16889
441 1 17.8025 24.7748 -0.0227923 3.46281 -0.129321 2.03411
1341 3 17.9982 24.9345 3.50577 -7.43962 -0.696597 1.62301
387 3 21.4983 23.1783 1.68973 0.431606 2.81385 -0.434008
444 3 19.7107 24.7929 1.79552 0.381401 1.04344 -3.25919
1282 3 19.6921 23.1278 3.57772 -0.422467 -0.129479 0.670946
1345 3 21.4459 24.9561 3.47086 -2.08132 2.3188 1.31297
447 1 21.2993 26.7213 1.57408 1.05683 -1.71372 -1.00079
1342 1 19.6801 26.746 3.38578 0.0872117 3.42388 0.0429526
442 2 19.4578 26.7272 -0.034943 -7.19804 4.33289 -2.11785
391 3 25.0333 23.1796 1.79492 5.09994 -1.32646 -1.87234
448 2 23.1461 25.1243 1.79998 3.34216 4.42405 -2.07584
1286 3 23.1981 23.0853 3.32045 1.26308 -1.20561 0.660184
1349 2 25.0029 24.9198 3.36929 -0.945228 -2.44436 -1.14309
452 1 26.6675 24.9592 1.57857 -4.1405 0.161078 0.980275
386 3 23.1817 23.2788 0.121 1.90144 0.0785053 2.42196
904 1 1.61515 0.0393489 5.27566 -1.03995 -2.53822 0.29189
1805 2 3.44926 0.0287001 7.00313 -0.795623 -4.15359 2.76478
907 1 3.39786 1.69555 5.2439 -0.903884 1.16778 -0.468669
964 3 1.77501 3.56251 5.18885 2.40259 0.577017 0.995952
1802 3 1.7646 1.8194 7.07251 -3.22569 0.153866 0.928523
1865 2 3.68171 3.45462 7.08797 -0.596237 -1.74263 0.808934
1864 1 1.94032 3.40536 8.74736 -2.82761 -4.14987 7.11649
1803 3 -0.0291089 1.80813 8.7844 0.453688 3.5854 3.19246
1861 2 0.0545834 3.59945 6.9213 1.9636 -1.64738 4.42886
1807 1 3.72218 1.66978 8.66563 -1.46882 3.41503 -4.10009
1809 2 7.18385 -0.00119865 7.17288 3.34749 -0.746371 4.88851
911 3 7.19403 1.68028 5.25743 1.35262 3.30507 -2.52389
968 3 5.38411 3.49912 5.15589 -0.663569 -0.988528 -1.15961
1806 2 5.34032 1.75145 6.90938 2.06396 -3.66458 -2.31113
1869 2 7.02612 3.54352 7.08506 -0.354324 -1.55455 1.39788
1868 1 5.21911 3.43675 8.83649 0.299608 0.452567 -1.71357
908 1 5.22263 -0.00982631 5.11287 1.31463 -1.55037 3.87709
1811 3 7.02242 1.72735 8.83807 -1.60964 1.58862 0.101909
1872 3 8.66548 3.51278 8.84234 -4.70839 2.20641 -0.306481
1810 1 8.88335 1.54136 7.09741 -0.432955 0.995628 1.76616
972 2 8.99698 3.38158 5.25114 0.152609 -1.04916 -1.39397
915 1 10.6854 1.6962 5.4241 2.13391 2.93901 -1.097
976 2 12.2671 3.48848 5.33943 -4.53585 2.04125 2.70192
1814 2 12.4892 1.76247 7.33646 0.786858 -1.49735 3.0275
1873 3 10.6169 3.61121 7.079 0.106704 1.43473 0.308534
919 3 14.1801 1.67561 5.27945 -0.744326 2.19636 -4.65629
980 1 15.9524 3.44839 5.27396 -2.69743 0.250973 0.891613
1818 3 16.0457 1.78986 7.00439 -2.84546 -1.38731 -1.52216
1877 1 14.1817 3.36853 7.00996 -1.43782 2.22785 3.12771
923 2 17.9653 1.68981 5.42137 -0.589501 -2.2026 0.290881
1881 2 17.8588 3.4788 7.15228 -2.04289 -5.97261 -0.565012
927 3 21.2482 1.806 5.41149 -3.3214 8.09661 -5.53392
984 1 19.5424 3.69644 5.23597 -1.59476 5.55217 0.136432
1822 3 19.5538 1.71759 7.2214 0.375058 -2.47019 -0.415182
1885 3 21.3875 3.49928 6.94777 -0.0207119 -2.50888 0.654662
1825 2 21.2671 -0.0137283 7.25717 0.426662 -1.68008 5.86613
1829 2 24.8936 0.137389 7.14458 0.628845 4.38596 -1.95543
931 1 24.9974 1.67109 5.22063 -2.79896 -4.27327 -1.27639
988 2 23.1155 3.62185 5.32966 5.08748 1.62504 1.56513
1826 1 23.189 1.6991 7.03572 -0.387639 0.0422816 -5.12025
1889 3 24.7712 3.58348 6.98145 -1.47286 -2.89912 0.993239
1023 1 0.159222 8.86787 5.28077 0.396258 3.02757 -4.50336
1863 3 -0.0396952 5.41473 8.75317 0.128834 -1.42638 -0.865708
967 3 3.66977 5.41402 5.22483 8.11109 -0.213262 -0.403922
1024 3 1.87686 7.10326 5.39911 -3.20565 2.4194 2.48528
1862 3 1.87767 5.21683 7.12118 4.90249 0.355719 -1.57996
1925 3 3.65399 7.06821 7.19395 3.0363 0.85388 1.94933
1924 1 1.84501 7.0305 8.87281 -2.77112 -1.48734 1.67694
1027 3 3.6307 8.85688 5.42196 -0.837102 -0.374264 1.28073
1921 3 -0.0201504 7.15995 6.95833 3.26477 0.68342 -1.37294
971 3 7.08289 5.35692 5.37251 -1.51242 2.42683 1.13986
1028 3 5.41162 7.1605 5.38205 5.41578 -1.41542 3.6967
1866 3 5.37836 5.23047 7.09547 -0.757957 0.43625 -0.478181
1929 3 7.17497 7.17855 7.12173 -3.89573 1.41567 -3.99886
1870 3 8.7469 5.2169 7.1202 -0.320653 -3.03521 -0.786852
1932 3 8.80299 7.0207 8.84982 4.84503 -0.991081 0.151396
1032 3 8.89181 6.98796 5.28309 2.35524 2.72896 0.541932
975 1 10.6849 5.18964 5.17837 -5.77205 -4.76735 -1.51499
1036 2 12.298 7.07167 5.31545 -1.82626 0.462292 2.28128
1874 1 12.6014 5.23617 7.06438 -1.14602 2.65739 -5.2605
1933 2 10.6402 6.90337 7.18861 -1.08483 -0.459093 -2.42373
1934 1 12.4922 8.85446 7.19912 0.732892 3.92852 -4.08916
1936 3 12.464 6.93918 8.87159 -0.72571 0.0218082 2.78785
979 2 14.225 5.13287 5.29264 -0.483175 1.36599 1.05007
1040 1 16.0829 7.00203 5.24364 -3.66245 -5.22931 -2.94483
1878 2 15.9303 5.23713 6.9569 -3.1104 0.920877 1.99843
1937 1 14.305 7.04961 7.03864 -0.56535 -2.23691 -4.45268
1039 1 14.271 8.81483 5.34297 -0.51265 1.94126 -0.263264
1940 2 16.0619 6.99569 8.85708 0.904733 -0.852647 2.24483
983 1 17.649 5.13309 5.43682 3.75282 -3.12907 -2.44229
1883 1 17.7626 5.25996 8.77571 -1.59685 1.57122 1.4046
1879 3 14.1608 5.21591 8.82237 -3.50934 2.92176 -0.75196
1941 1 17.6973 7.05281 7.06892 -5.44313 -1.89927 3.49625
1938 2 15.8562 8.84466 7.08327 6.45861 -4.53231 3.33995
987 1 21.3482 5.50701 5.28957 -3.96854 0.4081 -2.3628
1044 2 19.413 6.94712 5.48187 4.0652 5.5374 -0.873022
1882 2 19.6191 5.19814 7.0921 2.24161 -5.75016 -1.44828
1945 1 21.4465 7.08384 7.21114 -1.52098 -2.61909 -0.174363
1047 2 21.3321 8.80311 5.17688 1.92149 -1.55792 -2.95998
1043 2 17.8865 8.84011 5.32022 0.86203 1.34851 -0.288695
1942 1 19.492 8.75746 7.29411 3.37118 -2.97508 -1.52863
1890 2 26.6582 5.39106 7.09083 -7.2462 -2.32996 0.287073
991 3 24.9833 5.39936 5.24686 5.12063 -4.0173 0.717423
1048 2 23.0956 7.01918 5.29172 -2.09389 -0.157159 1.86742
1886 1 23.229 5.47112 7.15685 -1.46948 -2.61317 0.723771
1949 2 24.8984 7.13981 7.16517 2.22971 -1.17847 2.65326
1948 2 23.209 7.06297 8.88892 2.0387 6.6945 4.37033
1946 1 23.1526 8.7963 7.0022 -0.316032 -1.31521 3.45894
1051 1 24.9297 8.84896 5.29459 1.93375 -2.56265 3.8802
1922 3 1.79222 8.89395 7.0951 -0.848611 1.54246 -0.00792404
1084 2 1.74191 10.6694 5.42238 -0.300814 2.73416 4.92633
1087 3 3.48128 12.5451 5.24274 -0.920065 5.02882 2.24197
1982 3 1.81683 12.4418 7.05425 5.47899 1.78556 -1.43452
1985 3 3.526 10.7495 6.93758 2.13751 -0.843267 2.24155
1984 3 1.76678 10.4401 8.75254 3.1556 -0.803219 -1.06112
1987 1 3.66183 12.5076 8.7325 3.79079 -3.67158 -4.4332
1083 3 -0.000127726 12.5342 5.319 1.9949 6.46229 -2.63946
1031 3 7.12876 9.00893 5.34717 -2.41535 0.737031 4.12839
1926 3 5.42042 9.01179 7.21658 0.258452 -3.04025 3.96721
1088 2 5.24911 10.8314 5.2647 -0.737932 1.69065 5.69234
1091 3 7.09802 12.5603 5.1891 -3.12007 1.31291 2.00839
1986 2 5.33404 12.6225 7.07845 7.09027 0.998235 5.62015
1989 3 7.13419 10.9069 7.04794 -0.522063 -2.82496 -3.35909
1092 2 8.88173 10.7999 5.32998 -0.312386 -2.04119 -6.32033
1035 3 10.6612 8.94535 5.47379 -1.32757 0.610036 -0.119032
1990 3 9.01873 12.462 7.13575 1.71709 0.488031 -0.982579
1930 3 8.92903 9.03755 7.11158 0.502517 1.32751 1.19647
1095 1 10.7002 12.4659 5.36179 5.13991 -0.307477 -4.9082
1096 1 12.5817 10.468 5.4402 -1.74471 1.13738 7.07443
1993 2 10.6281 10.681 7.24986 -1.24439 -4.14425 1.05042
1994 2 12.3135 12.3536 7.08912 -2.57083 0.807256 -1.2452
1995 3 10.6671 12.6564 8.85808 -2.8717 1.58673 0.915371
1099 3 14.1453 12.3156 5.41789 -5.57738 1.11235 5.80216
1100 1 15.9981 10.4402 5.09618 2.09978 -2.33384 -2.7006
1997 2 14.0967 10.5768 7.0431 0.460193 -3.53941 1.74429
1998 2 15.9857 12.2894 6.90814 2.29176 -0.947637 5.107
2001 3 17.6481 10.6491 7.05614 4.29501 -3.46714 2.41596
1103 1 17.738 12.4981 5.26446 0.404529 1.24779 -3.43455
1999 1 14.1382 12.2748 8.80537 0.609972 1.28598 -3.05283
1104 2 19.5667 10.5627 5.43335 -2.12771 0.089895 1.03694
1107 1 21.3778 12.4253 5.56314 0.297097 0.351152 1.29264
2002 1 19.4582 12.4848 7.29665 -1.0393 -2.06093 2.60564
2005 3 21.3571 10.5488 7.20792 -4.45572 -4.8799 4.24975
1950 1 26.6811 8.91737 7.11174 -2.44968 4.10835 -4.92516
1108 3 23.0693 10.666 5.3148 1.36361 2.14174 -1.06554
1111 1 24.9783 12.3406 5.25089 3.61573 2.85037 -1.62679
2006 3 23.2164 12.4168 7.27608 -1.03401 3.35722 3.19882
2009 2 25.0221 10.5325 6.97244 0.124732 -0.0756128 -3.87997
2008 3 23.2442 10.6545 8.89197 4.57568 -2.90033 4.88762
1951 1 25.0042 8.97133 8.8619 1.21524 0.804911 -0.40534
1112 1 26.7441 10.4896 5.28098 -5.5412 -1.95453 1.31658
1144 2 1.7508 14.25 5.18865 -1.84759 0.37142 5.978
1147 1 3.56193 16.0021 5.37345 0.0116788 -1.63345 -0.753691
2042 1 1.60178 16.145 6.84712 -3.19091 0.91025 -3.89908
2045 2 3.56723 14.5018 7.06327 2.02335 -1.96739 -1.02109
2105 2 3.42979 17.827 7.08343 0.038645 4.18908 4.04386
2044 3 1.71996 14.404 8.86362 1.00877 -0.198579 3.66781
1148 1 5.45719 14.3397 5.25291 -8.06515 1.36782 1.64177
1151 2 6.9979 15.9706 5.2379 2.27525 -2.17364 -1.36626
2046 3 5.25247 16.2439 6.91823 -2.51365 1.48034 3.78156
2049 2 7.27309 14.2067 7.1447 1.43808 4.41042 -1.40497
2052 2 8.85997 14.2748 8.86961 0.761717 -2.24487 1.45105
2051 2 7.16979 16.0976 8.72733 -1.1466 -2.19534 -0.582066
2050 1 8.83829 15.9984 6.87642 1.02294 1.98635 1.96448
2108 1 5.3709 17.797 8.81017 -0.955353 -0.466884 1.15008
1208 1 5.35419 17.8161 5.26676 0.372272 -3.00839 -2.57326
1152 1 8.94909 14.2855 5.24726 1.60665 -0.183397 -0.302694
1212 1 8.99742 17.775 5.26591 0.823937 0.974726 -1.48086
1155 2 10.6338 16.1161 5.45097 0.8629 -0.85756 -2.60622
1156 3 12.4454 14.3191 5.28003 1.62464 -1.8132 5.15452
2053 2 10.6889 14.3118 7.13101 -2.18145 5.43703 -2.77833
2054 1 12.5203 16.1204 7.02729 4.2972 0.102386 0.972904
2055 3 10.8125 15.9907 8.80863 0.207651 0.0856376 3.66639
2112 3 8.93921 17.7778 8.79523 0.196068 2.28562 -6.33993
2056 1 12.4429 14.1486 8.87196 1.08669 -4.6344 -1.9329
1159 2 14.278 16.1641 5.26447 -2.4624 2.26615 -0.470688
1160 3 15.9997 14.1442 5.26229 -2.18352 3.7329 -3.26405
2057 1 14.2311 14.2452 7.13215 -1.58907 -0.422613 -0.514317
2058 1 16.1415 15.9653 7.21598 0.580417 -0.572168 -2.53084
2059 2 14.2186 15.9663 8.76358 -3.78013 -0.112066 2.87829
2117 3 14.4299 17.7915 7.1575 2.46722 1.52959 -2.10699
2060 2 15.9391 13.9836 8.77281 -1.42546 -0.828655 3.42723
1163 1 17.7845 16.004 5.29333 -0.6014 -0.669026 0.648569
1220 1 16.0762 17.789 5.31644 1.59908 -2.03148 2.21023
2120 1 15.9628 17.702 8.82051 -3.0851 1.42429 -2.23701
2061 2 17.8885 14.1984 7.15911 -0.137981 2.41837 -1.83913
1164 2 19.6037 14.0243 5.49966 1.3169 2.67525 -2.81734
1167 2 21.443 15.9631 5.49099 7.23601 -1.67743 -1.10665
2062 1 19.6194 16.0804 7.07331 3.93024 0.0233166 0.155385
2065 1 21.4088 14.2702 7.03383 3.17468 -6.94599 -2.69148
2067 1 21.3649 15.9891 8.8613 1.7935 2.69304 -0.902912
2121 2 17.9511 17.8042 7.12352 5.70378 -7.09305 5.36789
2072 1 26.5694 14.3712 8.80561 -2.32692 -2.65227 2.17694
1168 1 23.2051 14.2062 5.11351 -1.14128 0.214556 -2.70647
1171 1 25.0348 16.2017 5.18576 -1.644 -0.0644159 4.84591
2066 2 23.2164 16.0558 7.18933 -4.85353 -1.8687 -2.93496
2069 1 24.9078 14.1159 6.99744 -2.79249 1.60996 2.92836
2070 2 26.6332 16.0089 7.1084 2.59853 3.35037 3.02669
1228 1 23.2752 17.736 5.52544 3.96843 -2.66363 1.76145
2104 1 1.66251 17.8476 8.67006 5.21307 2.22004 -3.77254
1204 2 1.80195 17.877 5.33447 2.48862 -2.58639 1.2583
2161 1 -0.0437976 21.4028 6.9805 -1.3287 2.45466 0.563464
1207 1 3.67802 19.6867 5.31938 1.31264 -0.965097 2.34445
1264 2 1.76975 21.363 5.17393 -2.15722 2.33951 -6.38621
2102 3 1.67585 19.6948 7.04274 -0.202889 3.82737 -2.09356
2165 2 3.57084 21.4177 6.8989 0.0655707 -3.53964 -1.70824
2107 3 3.54421 19.6484 8.84565 3.31311 5.4581 4.96301
2164 1 1.77282 21.5269 8.63194 -3.66678 6.34212 1.3272
1203 3 0.0209785 19.4559 5.15364 3.08527 -2.66773 -2.7325
2109 3 7.09869 17.9568 7.06923 0.379083 -1.14597 -0.174761
1211 2 7.0482 19.6058 5.23606 0.516774 1.26447 2.26264
1268 3 5.34902 21.5211 5.32958 -1.1042 -0.0148125 -1.99318
2106 1 5.43995 19.6906 6.95393 -0.247204 2.19973 1.40163
2169 3 7.14067 21.4106 7.03119 2.01882 -1.49613 0.997855
2172 1 8.81227 21.208 8.84145 -1.89626 0.29273 -0.344487
2168 1 5.3331 21.3717 8.75734 -2.13198 4.31509 3.51018
2110 2 8.89253 19.6719 6.91843 2.08211 3.03417 2.86705
1216 1 12.5388 17.919 5.55718 1.62295 2.80983 0.998027
1272 1 9.07998 21.3514 5.26458 1.0192 1.78671 0.37353
2113 2 10.7198 17.9352 7.21009 -2.20268 -0.970013 -0.63661
2116 2 12.5433 17.8447 8.8698 1.24501 -0.452584 6.14184
1215 2 10.7495 19.6567 5.26636 0.682846 -0.493746 -1.7522
1276 1 12.485 21.521 5.30009 -1.12662 -1.33883 -1.89168
2114 1 12.5686 19.7354 7.14548 -1.19223 3.05731 0.522815
2173 2 10.7352 21.3377 7.12907 2.99914 -0.712265 2.7718
2115 1 10.6307 19.6233 8.823 2.04444 -1.41454 -2.37521
2176 3 12.3774 21.4687 8.81391 0.891569 1.71642 1.72017
1219 2 14.3576 19.4546 5.26687 -2.61629 2.75567 1.12807
1280 1 16.1428 21.2561 5.32241 -0.293839 2.1954 -1.09696
2118 1 16.0213 19.5207 7.10058 0.0192935 -3.46416 2.31182
2177 2 14.3815 21.2744 6.87881 -2.90297 3.86677 -1.70969
2180 3 16.1664 21.301 8.71753 -4.1789 2.05549 -2.66404
2119 3 14.3398 19.6137 8.84601 -2.0315 2.37824 -3.66643
1223 2 17.8812 19.6554 5.16972 2.50163 0.144733 4.93009
2125 1 21.3839 17.8718 7.13712 0.442628 -1.37501 1.69146
2181 1 17.9256 21.4051 7.06545 -1.75306 2.47744 2.46776
1224 2 19.5872 17.8621 5.286 -2.58554 -3.31623 3.98581
1227 2 21.3533 19.5774 5.2826 -4.1782 -3.80158 -0.511986
1284 3 19.7526 21.3361 5.10199 0.130926 2.73165 -0.5955
2122 1 19.5609 19.489 7.14706 -2.60346 -0.787679 -0.769471
2185 1 21.2653 21.5558 6.98991 0.142313 -4.81356 0.711607
2127 2 21.5184 19.6681 8.87322 5.08088 2.88671 -0.283129
2184 2 19.6743 21.2899 8.79641 -0.888544 2.71069 -0.212548
2129 3 24.9891 17.9224 7.12173 6.62981 3.04523 1.2433
2128 1 23.2814 17.8855 8.82313 0.6132 -0.0369584 1.24766
1292 3 26.7116 21.4831 5.29504 5.62795 3.66818 -0.0335282
1231 3 25.1073 19.6986 5.13341 2.62552 -1.11169 -2.17401
1288 3 23.2152 21.3457 5.37961 1.64244 -0.527773 -2.38928
2126 2 23.2553 19.5825 6.9673 4.80561 -5.1077 -1.75585
2189 2 25.0025 21.3426 6.89347 1.84891 -0.458757 2.54391
2131 3 25.0653 19.6218 8.7636 -3.93052 3.72504 -0.00667255
2188 1 23.3161 21.2906 8.71926 2.77563 3.5665 -0.65467
1267 3 3.64739 23.3666 5.36945 -0.955491 2.77425 1.68612
1324 2 1.7961 24.9009 5.23131 -0.383224 2.0048 4.2629
2162 1 1.70077 23.2062 6.97502 -0.779323 -1.53173 1.6151
2225 3 3.61685 25.0631 7.09091 -0.56301 0.75507 1.19637
1263 1 -0.00578269 23.2093 5.30405 -1.25265 0.990055 1.18162
2224 1 1.76496 25.0618 8.88295 4.05751 -1.08177 0.695377
2167 3 3.55446 23.2543 8.78506 -2.02195 -0.634652 3.94598
2222 3 1.78535 26.7286 7.07083 1.56775 -0.770391 -1.56119
1271 3 7.09776 23.3407 5.17922 3.88832 -4.42307 4.57772
1328 3 5.42665 25.1313 5.28265 3.88388 2.79149 2.67885
2166 1 5.3021 23.1373 6.9957 -0.00391898 -0.517003 2.5133
2229 3 7.0964 25.0846 7.09811 -3.52826 -2.05341 0.931802
2170 3 8.83127 23.2304 7.05088 4.49126 3.08018 4.29489
2171 2 7.0562 23.134 8.69136 3.20156 -3.26018 0.743657
1332 3 8.7733 25.2133 5.22654 0.791291 2.70347 1.89021
2228 2 5.22665 24.8842 8.69116 2.83848 -4.38088 -2.03166
2232 3 8.93285 24.9064 8.84473 2.2178 -2.31677 4.36483
1275 3 10.5711 23.224 5.4089 -0.850581 2.40807 1.53084
1336 2 12.4056 24.8733 5.34393 -1.06689 5.13054 -3.742