ITEM: TIMESTEP
163200
ITEM: NUMBER OF ATOMS
13500
ITEM: BOX BOUNDS pp pp pp
-5.4618326788197891e-02 5.3574618326764963e+01
-5.4618326788197891e-02 5.3574618326764963e+01
-5.4618326788197891e-02 5.3574618326764963e+01
ITEM: ATOMS id type x y z vx vy vz
7 3 3.71204 2.0216 1.6776 -1.06574 -2.48584 0.934782
64 3 1.86144 3.75936 1.68961 -3.42678 0.949232 0.00927821
902 2 1.84051 2.03031 3.35313 0.509842 -2.6706 3.7462
965 3 3.62177 3.85524 3.5378 1.19735 0.769435 -3.29433
4 3 1.71428 0.225178 1.67039 -1.31009 -2.85093 7.63704
905 3 3.63704 0.320792 3.45332 2.81223 2.2052 0.724045
961 3 0.0114162 3.72453 3.55663 1.0031 -0.921969 0.0225061
61 3 0.0954603 3.76965 -0.00932624 -1.9757 4.13331 4.39005
11 1 7.25071 2.13245 1.46588 -2.34422 -6.33214 -0.162593
68 1 5.47073 3.91952 1.54152 -4.70806 -1.69591 6.12907
906 2 5.49363 2.00746 3.39984 1.34421 0.410997 -0.81845
969 2 7.16511 3.86938 3.32772 -0.568872 0.00306794 0.945813
909 1 7.14969 0.426633 3.40412 -0.347581 -1.21431 -4.0163
8 2 5.51972 0.399029 1.57955 2.86122 -1.16361 1.11374
12 2 8.88824 0.286541 1.61576 2.23712 4.58811 2.93101
72 2 9.14905 3.79424 1.68663 -1.76241 -3.12741 -5.52547
910 1 8.94358 2.14594 3.60862 0.0813446 1.26602 4.91189
16 1 12.4941 0.250388 1.69219 -1.64285 0.913298 2.3669
15 2 10.8452 1.91802 1.70575 2.50218 3.45587 -0.145481
76 2 12.4256 3.59234 1.82143 -2.59792 -8.42378 -5.2288
914 1 12.5385 1.8992 3.55626 -1.26765 -0.648779 -2.36897
973 1 10.8578 3.71904 3.62311 -2.48837 -1.54699 -0.561772
913 1 10.594 0.124554 3.28615 -4.76065 1.29729 -8.44082
19 1 14.4593 1.97177 1.61138 2.62833 -0.941697 -1.48744
80 1 16.1178 3.72922 1.86265 2.72993 3.44466 -1.70863
918 2 16.1246 1.91628 3.39372 1.48343 1.48316 2.53494
977 2 14.2789 3.72939 3.49616 6.0874 -3.17808 -0.830888
917 2 14.2269 0.153571 3.35059 -0.686816 -0.720864 0.873947
20 1 16.1247 0.105517 1.61719 -3.78254 1.1281 0.899639
77 1 14.4234 4.01383 0.0116748 0.779471 0.456844 -1.15378
17 2 14.2825 0.183308 -0.0105449 -1.25672 4.28875 -3.92403
921 1 17.6904 0.220394 3.54496 -2.99053 -0.689612 1.18264
23 2 17.9709 1.86502 1.54374 2.36467 2.3719 3.91455
981 3 18.0162 3.54988 3.49251 -2.24352 -4.07461 -0.370167
27 3 21.5273 1.84509 1.65013 -1.71041 1.58325 -6.5398
84 3 19.7042 3.68319 1.62855 2.57798 0.987641 -1.81309
922 2 19.6689 1.92616 3.55798 1.40194 -1.56518 0.0214963
985 3 21.5595 3.77552 3.44267 2.44168 -1.95153 -3.24819
925 1 21.5049 0.034407 3.4253 1.4471 -2.53636 7.73257
24 1 19.6793 0.238382 1.79519 1.8319 -6.31044 -3.14741
81 1 17.878 3.83767 -0.0324077 -0.0866326 0.0168516 -3.75588
22 2 19.6213 1.95712 0.0698416 -2.2506 0.898862 -0.0999962
31 3 25.0248 1.8707 1.86625 -1.76901 -4.00199 2.51488
88 3 23.1663 3.79135 1.76887 0.883613 1.22664 -2.45421
926 3 23.1243 1.99766 3.63642 1.4108 -5.14876 -2.42885
989 3 24.9247 3.76914 3.51889 -1.00507 -1.10577 -0.167701
929 3 25.0113 0.140006 3.57388 -1.05537 -1.45244 -0.980487
28 3 23.2271 0.189633 1.73129 1.35255 -2.66468 2.61455
26 3 23.2337 1.86211 -0.0606873 -4.10784 2.23747 -3.63249
92 3 26.6042 3.68096 1.67027 -4.28152 3.80302 -0.10391
67 1 3.70688 5.29055 1.59033 -0.659555 -0.744721 -2.12774
124 3 1.77866 7.23075 1.57981 -2.94216 -1.73912 2.84948
962 3 1.88856 5.60195 3.52053 -0.83985 -0.794543 -2.23511
1025 3 3.565 7.36877 3.43323 -1.73291 -1.03448 0.453637
1021 2 0.0958363 7.26748 3.44051 -3.45073 -1.41451 -1.99331
71 1 7.50432 5.54556 1.66173 4.22163 -1.20518 3.16141
128 3 5.52227 7.30379 1.87818 -1.87722 -1.2253 -2.64392
966 2 5.35168 5.40156 3.47276 2.28193 -1.41476 0.448756
1029 3 7.19103 7.36593 3.61798 -1.3967 -0.705772 -0.642832
970 3 9.13981 5.53991 3.58882 -1.32048 2.95802 3.86425
132 2 9.16353 7.41794 1.85421 1.68145 -3.94861 -1.49811
75 2 10.8073 5.52953 1.76325 5.70756 -2.39242 -2.29178
136 1 12.4337 7.22927 1.59074 0.788571 2.32117 -0.603183
974 1 12.6602 5.6109 3.60179 -2.53884 3.72309 0.54106
1033 1 10.9369 7.39684 3.62525 1.42762 -4.28373 0.252707
79 3 14.3566 5.5276 1.86345 -0.822139 0.931262 -3.65387
140 1 16.1223 7.20035 1.84631 1.68178 -1.2317 -0.284663
978 2 16.0837 5.53901 3.6395 2.88169 -1.30683 -1.88754
1037 2 14.3864 7.38248 3.48664 -0.529184 0.604772 1.60373
137 2 14.4705 7.33746 -0.00096853 -1.81359 -1.00459 1.18678
1041 1 17.9386 7.2639 3.51284 -0.311489 -1.02337 2.75828
83 2 18.0774 5.61614 1.74816 0.70167 1.72891 -3.87532
87 3 21.4159 5.64748 1.66136 3.50114 1.16305 -1.01024
144 1 19.7287 7.49558 1.80341 -5.6559 -3.56637 -0.154535
982 2 19.7902 5.55649 3.38067 -0.0755208 -6.29519 1.07999
1045 3 21.5089 7.43694 3.43661 -1.03203 2.58685 1.82995
141 1 17.8914 7.38192 -0.0418507 -4.32769 -1.99957 0.435261
145 3 21.4474 7.29959 -0.0521512 -0.786059 -1.72602 0.988303
91 3 25.0537 5.61804 1.81164 0.79106 -2.32759 2.86528
148 3 23.3121 7.40487 1.66893 2.51965 2.90096 -1.23615
986 3 23.2848 5.64347 3.50862 -3.77147 2.58764 3.56647
1049 3 25.1424 7.33595 3.65847 2.89805 -0.532651 3.13637
152 3 26.755 7.23135 1.62425 1.67612 3.03385 1.49031
1022 3 1.9298 9.09669 3.28026 0.598573 1.3272 -1.01713
127 1 3.75602 9.09236 1.59953 -0.334815 -3.66093 2.8357
184 2 1.82688 10.9769 1.58896 1.65589 -0.555307 1.0091
187 2 3.49921 12.6994 1.68661 -0.156593 -0.966122 -1.95519
1082 1 1.99659 12.4965 3.52774 2.37079 -3.03168 0.615347
1085 1 3.55853 10.8901 3.71573 -6.60677 -3.45214 -2.91149
1081 1 -0.0171857 10.8151 3.25393 -1.43155 1.34445 -0.967175
183 1 0.252416 12.7713 1.82331 -1.98173 -1.84143 -1.06427
123 1 0.131787 9.07469 1.51487 4.13027 -1.16221 -4.19873
181 2 -0.0359551 11.0263 -0.0139797 -0.998872 -0.234179 1.27997
131 2 7.22527 9.07617 1.83267 -4.87498 1.686 -3.42323
1026 3 5.31833 9.23069 3.65294 2.74576 -3.00074 2.10846
188 2 5.30305 10.9611 1.7687 -1.05439 0.388447 2.46073
191 1 7.22971 12.711 1.80976 -0.191487 -0.21281 -4.40656
1086 2 5.32345 12.7664 3.64621 0.68137 -3.69308 0.927935
1089 1 7.24312 10.9091 3.42138 -1.06351 -0.931598 -0.650807
126 1 5.58927 9.24947 0.0635473 -2.35381 0.926823 -0.941701
186 2 5.40651 12.7613 0.0259711 0.794073 0.399763 -0.95537
1090 2 8.96408 12.6208 3.54173 3.26348 -0.242445 1.01317
192 2 9.05255 10.9103 1.8222 -1.72157 -3.78073 0.650434
1030 3 9.04973 9.20745 3.55498 -0.183549 -0.728717 -1.39279
1034 2 12.5781 9.13304 3.57099 -1.61063 0.118005 2.33543
135 1 10.8727 9.05926 1.8311 3.56655 0.127205 0.709587
195 1 10.7242 12.8219 1.85352 -1.10538 1.36423 -0.127873
196 1 12.6301 10.9517 1.80057 -0.267223 -3.73567 0.984728
1093 3 10.7512 11.0341 3.44001 0.491369 -2.57722 1.49545
1094 2 12.5977 12.6405 3.64761 -2.16372 -3.51721 -1.22453
130 1 9.05653 9.32562 0.00278811 0.798949 0.885226 0.43712
134 2 12.37 9.30278 0.0409739 -2.49684 -3.92275 1.41938
190 1 9.03214 12.7602 0.105241 -0.463674 2.6277 -4.06307
193 2 10.7526 11.0739 0.128151 -1.08189 6.34391 5.62109
1038 2 16.2297 8.98782 3.52881 -0.43513 2.23113 -3.83144
139 1 14.3567 9.11099 1.75327 3.34637 -2.87699 -1.33426
199 3 14.3973 12.6794 1.6611 -2.97607 -0.602091 -1.0554
200 1 16.1721 10.9828 1.71522 1.54331 -0.0175358 0.499005
1097 2 14.3264 10.7531 3.54136 1.38105 -2.2675 0.656156
1098 2 16.2199 12.509 3.57913 -2.26104 0.453255 -7.70337
138 2 16.1765 9.13914 0.0891222 -0.0486585 -1.66975 -0.296514
143 2 17.9708 9.01316 1.87163 -1.50503 1.73931 2.65869
1101 1 18.057 10.7964 3.6365 3.03464 -3.62745 1.2732
203 1 17.8973 12.6607 1.81326 -3.77266 3.93893 -0.817731
147 2 21.3495 9.27801 1.66995 1.48924 2.93217 -1.67046
1042 1 19.7477 9.17281 3.57086 2.59597 0.152516 -0.037816
204 2 19.632 11.096 1.75966 6.92087 0.161332 7.0945
207 1 21.5521 12.8218 1.7444 -1.49351 3.7651 3.23206
1102 2 19.6633 12.8268 3.63712 2.88633 -1.99816 3.0064
1105 3 21.4559 11.023 3.41588 -0.963675 0.654477 2.20933
201 1 17.9198 10.9878 0.000206106 1.23291 0.0114721 1.77214
202 2 19.6343 12.7087 -0.0382962 0.373901 -2.88188 2.12331
1046 3 23.2616 9.16961 3.39679 -5.75826 -4.39087 -0.20637
151 3 24.9735 9.08167 1.47817 2.30895 -1.65024 -3.14413
208 1 23.3085 11.0644 1.59112 -5.33059 2.30022 4.51072
211 1 25.1668 12.7079 1.6849 -0.278051 1.833 -0.165526
1106 2 23.4722 12.8128 3.51002 1.36116 -1.22298 1.35087
1109 2 25.0079 10.8702 3.54215 -3.28596 -1.88493 3.76637
212 1 26.7239 10.8162 1.73465 0.424289 -0.0239917 0.0858773
244 2 1.97733 14.3834 1.75072 -0.578582 -0.443779 -0.976404
247 2 3.53327 16.1913 1.76884 0.927195 0.195513 3.04694
1142 1 1.78457 16.2767 3.69447 -3.39983 -1.85456 -1.76274
1145 1 3.54429 14.5018 3.58627 -4.76885 -2.17316 -1.61376
243 3 0.13504 16.1427 1.87662 -5.2449 2.96881 -0.274704
242 3 1.87553 16.2656 -0.00482504 -1.12359 -0.575545 -5.96485
1141 2 0.183978 14.394 3.62153 -1.4002 -1.99564 -0.0320567
241 3 0.0940345 14.4004 0.0246858 -4.45702 -4.09896 -4.17767
248 1 5.30826 14.3838 1.72822 0.603995 2.95863 1.55599
251 1 7.12113 16.2048 1.53108 -1.95922 -1.38053 -1.78396
1146 2 5.35149 16.1814 3.46403 1.91458 1.93181 -0.484746
1149 2 7.1758 14.5818 3.61068 0.807623 1.93721 -0.715835
1209 1 7.07684 17.7077 3.55407 0.70984 -3.16937 4.94181
1150 2 9.01378 16.1465 3.7009 0.0381797 -0.239986 0.388487
252 2 8.94104 14.3446 1.85345 -1.03701 -1.88597 2.95632
255 1 10.8762 16.166 1.78994 -0.350244 -2.77812 -1.69377
256 2 12.6415 14.5013 2.01688 1.60131 4.54366 0.0830404
1153 1 10.7259 14.5336 3.76676 3.97157 -5.41004 0.285574
1154 2 12.3421 16.1219 3.57644 -1.29723 -0.583424 -0.958981
253 3 10.7519 14.4128 -0.00492488 -3.02765 1.8918 -1.23415
254 3 12.59 16.1812 0.0639873 -2.55394 -2.16391 -1.96294
259 3 14.2778 16.1746 1.86726 -5.10471 -0.237573 2.37167
260 3 16.175 14.3854 1.83464 -3.73979 -1.53453 -0.843697
1157 1 14.4143 14.6102 3.68021 3.22064 -0.580823 -0.126047
1158 3 16.1568 16.2471 3.50891 -4.99991 -0.988838 0.517264
258 3 16.1929 16.2817 0.0822195 -0.841969 -2.2185 -4.58963
257 3 14.2081 14.4652 0.00389216 2.04612 -1.53142 2.52399
1161 3 17.9013 14.5052 3.53686 0.526839 -3.05207 -0.0602146
263 3 17.9648 16.1708 1.72418 -1.05135 1.28296 -0.371256
264 2 19.9116 14.4352 1.67495 -1.65718 0.668375 1.37816
267 1 21.5655 16.1585 1.62934 5.24272 0.021742 -1.00104
1162 3 19.749 16.3452 3.49275 -2.01276 -0.343982 -1.28733
1165 1 21.5885 14.6095 3.43043 -0.209896 1.47204 4.48723
261 3 17.9737 14.5087 -0.015682 0.62854 0.176477 0.587907
262 3 19.8129 16.2541 -0.0345006 -2.1651 -2.75656 2.12028
268 2 23.304 14.6268 1.77908 -1.23802 3.97654 1.77174
271 3 25.0969 16.4422 1.66737 0.898676 -2.47803 0.873099
1166 2 23.1828 16.3064 3.52789 2.45066 -0.00584269 0.547768
1169 1 25.2045 14.6687 3.48638 3.65349 0.16909 -1.649
272 2 26.6458 14.5315 1.77348 1.69738 -0.813274 2.50668
269 1 25.021 14.5946 0.0376331 0.562143 1.96627 1.8595
266 2 23.265 16.3209 -0.0443884 -1.29284 0.194924 0.604945
1205 1 3.48872 18.0077 3.60564 -0.594971 -0.275294 -2.01036
304 3 1.90719 18.0678 1.76207 -0.0666641 -1.74944 -0.846227
307 3 3.79955 20.0597 1.82367 2.9783 1.36593 -5.67773
364 2 1.78503 21.6008 1.89744 -3.79004 -3.66806 -1.47879
1202 2 1.79973 19.9439 3.51924 -0.828785 -3.80608 -0.558623
1265 1 3.72499 21.713 3.5488 1.196 -2.42873 -1.32283
303 3 0.0620328 19.8576 1.87134 0.808001 -2.3686 0.575238
361 3 0.0924476 21.5952 -0.0222398 0.439729 1.00325 -2.58093
302 3 1.92898 19.872 0.0503468 0.040045 3.96396 2.40276
301 3 0.0926029 18.0079 0.0469556 -4.60082 -4.22226 3.60835
308 2 5.24156 17.9142 1.76215 0.079925 2.46837 2.0016
311 1 7.05804 19.5947 1.774 -1.30782 -1.10525 -4.41583
368 2 5.41255 21.7117 1.83522 -0.141581 -2.94679 -1.3465
1206 2 5.47337 19.7334 3.51163 -0.278787 1.64626 5.76829
1269 3 7.10466 21.5469 3.49007 0.128405 -2.31627 -2.97004
309 2 7.08478 17.86 -0.0335817 2.02626 -1.68697 -3.10264
369 2 7.07524 21.4651 0.00679782 -0.244925 -2.82528 1.43578
1210 2 8.77251 19.6368 3.55461 1.74125 2.12401 3.14928
310 1 8.85903 19.826 0.0836686 3.11356 -1.99404 3.07504
372 2 8.92324 21.5731 1.62178 1.6345 -2.35449 -0.826715
312 2 8.9753 17.972 1.75582 3.628 -2.1616 -1.8206
316 2 12.4832 18.1344 1.81466 1.99687 0.348328 2.63877
1213 1 10.7566 18.0193 3.6824 -2.18815 1.80019 0.0445624
315 1 10.6116 19.8137 1.84571 2.39593 -1.44535 0.129991
376 2 12.5537 21.6039 1.80449 2.62623 0.260723 -1.18846
1214 2 12.5585 19.7862 3.53529 -0.514947 0.862969 -0.126852
1273 1 10.6528 21.6626 3.50816 0.720303 -1.89274 0.0505078
313 2 10.6987 18.0883 -0.0487393 -3.01789 0.138967 -2.21874
314 1 12.3289 19.8561 -0.0411096 2.0885 -0.65708 -0.995449
320 2 15.9049 17.8895 1.66858 1.46506 2.31948 0.506812
1217 1 14.22 17.9853 3.62716 -0.65837 1.09215 -3.43031
319 1 14.3484 19.7964 1.70584 -0.561983 1.31648 -0.809569
380 2 16.1589 21.5596 1.67275 -4.47971 -1.66913 2.96993
1218 2 16.0636 19.8288 3.50272 3.9376 5.44425 1.24656
1277 1 14.2064 21.6415 3.55864 -3.85664 2.5179 -3.49453
377 2 14.2487 21.5176 0.035843 0.733913 2.0926 -3.4141
321 3 17.7859 18.0141 0.0216903 1.79824 0.839901 -0.854901
323 3 17.7897 19.8674 1.71522 -1.2853 -1.0752 -0.738115
1221 3 17.7995 18.0359 3.42952 -4.0352 -7.00171 2.07404
1281 1 17.8616 21.5988 3.47544 3.86949 2.16835 -1.45132
1225 3 21.4665 18.1124 3.28015 4.19925 -2.64565 -3.82628
324 2 19.6926 17.9823 1.69064 0.14682 -1.67773 2.92802
327 3 21.5465 19.8821 1.71085 0.224393 -2.32545 0.478474
384 3 19.6353 21.6708 1.71669 8.98601 -1.95093 -0.743397
1222 3 19.6052 19.8904 3.30895 -2.30931 -0.931326 -3.57417
1285 3 21.359 21.7105 3.53287 0.803162 -3.02787 0.843273
322 3 19.5639 19.7661 -0.0169739 3.66977 0.40729 1.27794
1229 3 25.0576 18.1902 3.67057 1.17271 -0.625466 -1.53602
328 3 23.3467 18.031 1.72637 -0.360226 -4.7141 0.179433
331 3 25.0951 19.8055 1.7328 0.661686 3.16571 1.37734
388 3 23.3328 21.6674 1.6742 6.28704 2.02682 -1.31414
1226 3 23.2102 19.9681 3.42701 -0.0192874 -0.162644 -3.34779
1289 3 25.0588 21.6321 3.6363 3.17904 0.824773 1.11814
326 3 23.2303 19.9242 -0.0418569 -3.01567 2.27317 -0.911352
367 3 3.53371 23.4893 1.77331 -0.535936 0.128971 3.89785
424 3 1.84966 25.2842 1.74704 3.44522 0.942062 0.949484
1262 2 1.63361 23.4666 3.61397 2.48424 -1.31558 -3.92118
1325 3 3.68655 25.2859 3.3933 1.74317 5.41769 2.62314
425 2 3.5989 25.1173 0.0997486 -2.27797 0.920147 -2.31425
363 1 0.109268 23.5826 1.9518 1.28684 -1.48423 -3.02112
371 1 7.21485 23.4707 1.73882 0.839586 -1.60781 1.49251
428 2 5.4126 25.1628 1.76767 0.701726 -3.85802 -1.68978
1266 3 5.60564 23.5465 3.50785 6.09136 3.70911 -2.72544
1329 1 7.1883 25.3521 3.59202 2.4489 4.12755 1.20812
432 2 8.79109 25.0638 1.84553 0.778064 5.58068 1.48577
1270 2 8.75874 23.4439 3.39647 2.65493 -1.95333 -2.3077
375 1 10.7887 23.5622 1.69505 -4.81214 -3.70201 -3.89082
436 2 12.5595 25.2039 1.65995 -0.0158464 0.723911 1.83536
1274 2 12.5424 23.6285 3.51989 -2.33153 -1.85693 1.19631
1333 1 10.6869 25.1178 3.57079 2.79177 -0.508737 -0.0339731
370 1 8.91976 23.3893 -0.0228881 1.92416 -1.21253 0.210257
379 1 14.3609 23.3364 1.88393 -1.41014 -0.240695 -3.69561
440 2 16.0649 25.2817 1.69661 1.21757 5.846 1.41865
1278 2 16.1012 23.3642 3.44376 -1.7345 0.9238 -0.2664
1337 1 14.2487 25.2912 3.54227 -1.0605 1.9652 -2.84386
437 3 14.191 25.1108 -0.0054166 -2.47844 -3.08427 -2.50655
378 1 15.9461 23.3872 -0.0144169 1.80146 0.0736052 -4.43698
1341 1 17.889 25.1696 3.36706 -1.37307 -2.64464 3.91453
383 3 17.8917 23.3724 1.6203 -1.86081 1.90639 3.97804
387 3 21.4621 23.4033 1.71435 2.65711 -1.72102 -0.43031
444 1 19.756 25.1218 1.59514 -0.455119 0.00099839 -4.11204
1282 2 19.6088 23.4709 3.50552 2.27956 -0.734345 1.32083
1345 1 21.5273 25.1516 3.57296 1.0905 2.30932 -0.723017
391 3 25.1253 23.42 1.83535 -1.48133 -4.28046 3.31278
448 2 23.3613 25.1544 1.78162 -1.7799 -3.04095 -1.89822
1286 2 23.2969 23.4116 3.61705 -1.95495 -1.04948 -5.58561
1349 1 25.0151 25.0411 3.49364 -5.5321 -2.00525 -2.82918
903 3 -0.0375046 2.03565 5.19405 2.63077 3.06177 0.372214
907 3 3.55421 1.92605 5.32205 -0.17054 4.18132 1.87107
964 3 1.86288 3.66153 5.4256 3.38947 -1.2664 4.63999
1802 2 1.76537 1.84458 7.13034 -1.44741 0.215471 4.50482
1865 3 3.51314 3.81614 7.10724 -2.03073 -0.350539 4.43958
1805 3 3.796 0.238116 7.12109 2.54563 -0.0152769 -2.47591
904 3 1.73012 0.402934 5.1154 -0.845391 -2.46942 0.025046
1804 1 1.70128 0.286637 8.71893 0.524663 4.33106 1.29003
1807 3 3.5616 2.07237 8.78522 -0.779496 -1.25055 -1.07268
1861 3 0.114679 3.81533 7.12306 1.86126 -4.95303 -4.23894
1864 3 1.77126 3.79381 8.84953 -1.73334 0.191731 -4.1442
1809 2 7.30432 0.106399 7.13271 -1.8272 0.923497 -4.36387
908 2 5.58837 0.276441 5.3046 2.82883 -1.06579 -6.38114
911 1 7.15406 2.15084 5.43533 2.22075 1.13661 -0.773625
968 3 5.3086 3.76436 5.42403 -1.58633 -3.45187 2.64602
1806 1 5.50444 1.9537 7.11817 -4.92205 1.04909 1.54758
1869 2 7.23429 3.97093 7.24053 -0.788423 1.1063 5.33457
1868 3 5.42732 3.85327 8.83542 3.51563 -2.09929 -0.351402
1811 1 7.3232 2.23917 8.83548 -3.97914 4.15897 1.35806
1810 1 8.97083 1.88159 7.1764 6.44827 2.30342 1.17531
912 2 8.93117 0.198969 5.22059 0.539821 -7.24381 1.37196
972 2 8.90064 3.90246 5.35006 1.23138 0.437663 0.379594
1813 1 10.566 0.174496 7.19932 -1.23373 -1.74725 -3.45013
916 2 12.604 0.210812 5.15461 1.00295 -5.66358 -2.91409
915 2 10.713 1.88944 5.35116 -2.33787 -0.241681 -1.9126
976 2 12.5 3.69591 5.40269 -0.920885 -2.07504 0.188165
1814 1 12.5772 1.94916 7.08104 3.50387 -1.90983 -1.13334
1873 1 10.6215 3.80307 7.05386 -1.12311 2.4921 -1.30122
1872 2 8.96713 3.86617 8.79287 -0.719499 -2.10498 1.8121
1876 2 12.4035 3.90515 8.80241 0.426695 4.72192 -2.22291
1817 3 14.4471 0.264511 7.05792 -2.07239 -0.749786 3.15222
920 3 16.1137 0.152434 5.28422 -0.911699 -0.801584 1.85809
919 1 14.3991 2.08871 5.2421 -4.57188 -0.319273 1.15032
980 1 16.3738 3.58204 5.33622 -2.39263 0.900555 0.194381
1818 3 16.0829 1.96074 7.19188 -3.47031 0.0889181 0.918664
1877 2 14.4023 3.7902 7.00842 1.59491 0.995009 4.18778
1819 1 14.2122 2.17497 8.73113 -0.446437 -1.92163 -0.918778
1821 3 17.8732 0.176289 7.07145 2.81971 -4.05049 1.30508
1825 2 21.4665 0.135103 7.20827 0.184158 1.1714 -2.55675
923 2 18.0518 1.87812 5.40459 -6.52651 1.84018 -6.4156
1881 3 18.0595 3.67551 7.23433 -1.72759 -1.02336 -5.49228
924 3 19.6787 0.0466385 5.33699 -0.931798 2.6813 1.39618
927 3 21.4644 1.85835 5.33691 0.958399 5.17641 2.82439
984 3 19.694 3.79292 5.19334 -3.69377 1.43943 -2.10016
1822 3 19.7959 1.96128 7.2348 0.486606 1.34285 -1.33372
1885 2 21.499 3.82719 7.10503 -0.920229 2.93478 -1.86904
1827 3 21.6836 1.84887 8.72666 -0.933223 -0.844388 -1.89005
1823 3 17.9332 1.91392 8.86619 -1.71588 1.5549 1.43161
928 2 23.2036 0.230531 5.40238 -0.77235 -0.865615 1.60047
1829 2 25.0232 0.183415 7.0181 2.72122 -5.19101 0.9137
931 1 25.0681 2.08006 5.30376 3.7249 5.18956 -4.02486
988 2 23.1866 3.74037 5.37503 -3.60541 0.251403 0.229008
1826 3 23.1879 1.93486 6.99934 -0.771124 3.67843 1.8281
1889 1 24.8588 3.71514 6.98012 -2.41144 0.160122 1.9957
1888 2 23.4305 3.72094 8.80265 -1.79365 -0.550381 -0.273219
932 1 26.7118 0.160672 5.32129 0.233677 3.75413 0.597255
1828 1 23.4574 0.170054 8.79394 0.267665 2.80667 -1.79636
1892 3 26.7438 3.79042 8.74347 -0.360064 5.06025 0.808627
963 3 0.234833 5.58337 5.51139 2.73031 -1.90392 2.22636
967 3 3.57353 5.60921 5.35984 0.352874 -0.703977 -1.59811
1024 3 1.69854 7.50251 5.16902 -2.46911 -1.65106 -0.860468
1862 3 1.89982 5.79762 7.14044 4.33178 1.16089 0.398603
1925 3 3.64075 7.4945 7.03665 4.47528 1.61407 -2.30462
1921 3 0.099599 7.37861 7.08856 -0.846925 -4.21758 -1.0708
971 3 7.15764 5.53559 5.28081 -0.782675 -3.4454 0.318068
1028 3 5.33651 7.31042 5.29975 -2.31739 3.74547 0.993345
1866 3 5.44182 5.60161 7.08162 -0.413341 0.905578 3.34159
1929 3 7.27421 7.29491 7.02055 0.94971 1.27911 -0.298188
1870 1 8.85514 5.63772 7.14093 -1.4786 1.74874 -2.66186
1032 3 9.05801 7.38639 5.26227 0.44929 1.27324 -0.843543
975 2 10.7942 5.51437 5.31376 -0.898332 -0.894052 1.3421
1036 3 12.608 7.32218 5.28884 0.784217 -1.19927 0.11741
1874 1 12.5149 5.56932 7.07519 -1.89352 -1.68495 -2.21821
1933 1 10.6956 7.22288 7.20122 4.51211 -3.96812 -1.50317
979 1 14.3531 5.55666 5.34377 0.055228 -0.559277 -0.966049
1040 1 16.1952 7.29893 5.32328 4.3579 -0.44221 -2.08718
1878 2 16.1788 5.33292 6.99135 -0.189937 0.378428 -4.04408
1937 2 14.3711 7.28304 7.09578 -0.791825 1.04564 2.24883
1940 2 16.0716 6.99412 8.87346 -1.22737 -3.29199 1.31402
983 2 18.026 5.42375 5.36556 0.340322 0.297338 4.76313
1941 1 17.8891 7.28971 7.09979 2.04766 -0.0130764 -1.89481
987 1 21.3522 5.57797 5.35018 -2.53107 2.10306 -2.02917
1044 2 19.6085 7.50773 5.37672 1.9295 0.20863 0.89264
1882 2 19.9237 5.56171 7.29445 -3.81023 5.51365 -2.15534
1945 1 21.4886 7.31163 7.09788 -2.76805 2.92542 -2.87836
1944 2 19.7439 7.32129 8.83688 1.62719 3.21725 5.41045
991 3 24.9361 5.5082 5.24342 0.306085 -1.72021 0.508517
1048 2 23.2048 7.20067 5.35639 -5.4037 0.907839 -1.73052
1886 1 23.2627 5.73057 7.18486 2.22451 -6.27364 2.00243
1949 3 25.0481 7.31065 6.9645 2.09383 -5.15525 -1.6068
1890 2 26.742 5.37214 6.90534 2.24824 1.6666 -2.87269
1948 2 23.3937 7.41504 8.87358 4.65674 0.511595 -0.164401
1027 3 3.59651 9.0769 5.31324 2.82785 -4.9283 2.00387
1922 3 1.78856 9.16121 6.95698 4.22694 -1.8788 -4.6782
1084 2 1.69829 10.8673 5.11487 0.502085 0.860647 3.51504
1087 2 3.78516 12.7511 5.40673 3.41912 4.15226 -0.857276
1982 1 1.89205 12.6271 7.0576 -2.2296 2.77756 1.03997
1985 1 3.58769 10.7578 7.13432 0.504828 -1.84483 1.51133
1987 3 3.60895 12.6492 8.7981 0.948363 0.165629 1.19051
1984 3 1.83531 10.7798 8.80872 -0.534753 -2.89083 0.640618
1981 2 0.1084 10.9325 6.94809 2.36684 2.5226 -2.1813
1926 3 5.45075 9.1814 7.13828 -3.38413 5.81796 6.67826
1031 3 7.18433 9.19993 5.4617 0.86361 2.00895 -1.00651
1088 2 5.33868 10.9228 5.34864 1.60484 1.69262 -1.10005
1091 1 7.14418 12.6266 5.26859 -3.0701 1.56105 2.08871
1986 1 5.30729 12.5632 7.14188 -1.06465 1.43782 0.390866
1989 3 7.10591 10.7452 7.37599 3.02771 1.5576 3.04758
1930 3 8.87558 9.0407 7.19557 0.978718 3.63581 1.95734
1990 3 8.93857 12.6579 7.19352 1.34408 0.572894 -5.53014
1092 3 8.95761 10.9716 5.36674 -5.49463 3.93328 7.20068
1934 2 12.5963 9.12422 7.22597 3.17101 -4.09168 -1.07444
1035 3 10.7628 9.31731 5.42205 -1.21642 2.03443 -1.08493
1095 1 10.7572 12.7291 5.32756 -1.07203 -3.48208 -1.09822
1096 1 12.8761 10.9879 5.43306 1.13489 -2.96115 -3.50827
1993 3 10.8826 10.9592 7.18644 1.89048 -3.58642 2.77481
1994 2 12.5511 12.7704 7.21798 -0.350914 -1.13284 3.40974
1996 3 12.655 10.9395 8.85976 -3.40474 -2.71875 1.10721
1935 3 10.8276 9.19343 8.77387 -2.4724 -0.98309 -2.12794
1938 2 15.9118 9.03154 7.10892 -0.90138 0.737335 6.54783
1039 1 14.4546 9.12862 5.45235 4.89289 -4.37242 0.706034
1099 1 14.5822 12.7548 5.47289 -0.0625442 1.03641 -1.61898
1100 1 16.0866 10.8976 5.42996 -2.75307 4.61994 4.81887
1997 2 14.475 11.0166 7.16797 0.926547 5.29603 4.34276
1998 2 16.2017 12.8649 7.21856 0.305029 -0.211399 1.53958
2000 1 16.1214 10.844 8.74944 4.14459 1.25277 1.84389
1043 2 17.7872 9.16707 5.40798 2.79749 -2.47402 1.97744
1939 1 14.4225 9.01028 8.86458 -2.92514 -1.10514 -0.0892802
2001 2 17.9891 10.9232 7.08391 -0.383465 -2.76177 6.6621
1103 1 17.8549 12.8138 5.29643 1.8851 -0.615091 0.260129
1047 2 21.5158 9.20589 5.32983 -0.146513 3.25002 -1.16622
1942 1 19.7314 9.04175 7.0657 0.965821 0.575345 -0.376188
1104 1 19.7879 10.9339 5.26223 1.14026 3.35743 -1.80384
1107 2 21.6557 12.8218 5.28938 -2.70927 0.428829 -3.50978
2002 3 19.6973 12.6592 7.08289 -2.72556 0.760859 0.0995823
2005 3 21.4906 10.9599 7.26066 2.6614 -2.78665 5.14322
1947 2 21.655 9.20206 8.83861 3.19982 -5.24991 2.48609
2004 3 19.6682 10.8231 8.80471 0.812315 1.43164 -1.40715
2003 3 17.9745 12.7529 8.73784 -4.52014 0.512408 0.232771
1943 1 17.8185 9.01539 8.70419 -2.99613 -1.56437 -5.56185
1950 1 26.6751 9.27243 7.22603 3.41693 1.39022 -2.09594
1051 3 24.7924 9.10988 5.40493 1.85614 -2.21258 -0.627998
1946 3 23.32 9.29491 7.07764 1.66834 -0.220645 3.40279
1108 1 23.2554 11.0174 5.31878 -0.216686 -3.98681 -5.4319
1111 1 24.9212 12.6636 5.25803 0.549925 -2.7083 1.10712
2006 2 23.2524 12.7031 7.05495 1.9121 -2.05698 0.149704
2009 2 25.0957 10.9591 7.17381 -0.56227 0.909726 -5.94839
1143 1 0.0417253 16.1989 5.24737 -0.690338 -1.24906 1.32611
2041 1 0.139336 14.3868 7.13017 -0.551328 -0.24643 -1.47087
1144 2 1.89949 14.4622 5.44353 -0.552168 -4.65504 2.10309
1147 2 3.70667 16.2877 5.30499 6.31396 0.784999 3.49686
2042 1 1.84553 16.2548 7.12072 0.714649 0.532984 5.76055
2045 2 3.60733 14.5512 7.2637 2.42397 -0.61499 -1.5783
2047 2 3.55582 16.4202 8.82115 -0.932779 -0.583186 0.936331
1148 1 5.40782 14.4071 5.4727 -1.50269 -0.813559 -0.292938
1151 1 7.18551 16.1748 5.45012 0.624489 2.10686 2.04766
2046 1 5.21816 16.3839 7.32709 2.38519 2.87611 -1.08452
2049 2 7.14711 14.4635 7.25494 4.12059 -4.43638 2.8644
2050 1 8.97245 16.1641 7.23717 -0.281085 -1.54451 3.83166
1152 1 8.95559 14.4079 5.4161 0.0918897 -1.02073 0.165251
1155 2 10.7002 16.2598 5.57805 -2.02289 -4.55203 0.651174
1156 2 12.5947 14.4185 5.55026 4.36135 0.570494 1.95295
2053 1 10.7773 14.3583 7.23586 0.761016 -2.77727 2.74352
2054 1 12.5723 16.2464 7.16018 2.15756 -4.41735 4.30176
2055 2 10.7899 16.2993 8.74783 0.238993 0.955969 -2.43311
1159 2 14.3999 16.2166 5.51616 1.04181 -1.05195 -1.17932
1160 2 16.1296 14.4819 5.39198 -2.8346 -2.92333 -1.22013
2057 1 14.3768 14.4342 7.326 -1.69874 0.586067 -1.89274
2058 3 16.1851 16.3444 7.26053 4.99467 0.153716 0.942665
2059 2 14.2442 16.5599 8.75513 -0.276867 -4.07477 1.87426
2061 1 17.9237 14.4501 7.15709 3.45999 -0.218399 -1.06295
1163 1 17.8783 16.3578 5.40396 0.28261 1.89375 2.17048
1164 3 19.8742 14.6314 5.35328 3.61041 -2.37997 2.84738
1167 2 21.6327 16.4505 5.24659 1.47698 -3.34699 -1.31507
2062 2 19.6611 16.3926 6.96756 -1.39857 -4.51104 -4.96553
2065 1 21.5314 14.5671 7.01433 -4.14173 -5.07908 -3.5268
2064 2 19.8639 14.6509 8.75204 3.11761 -1.1695 -0.116414
2067 1 21.6937 16.3427 8.76718 0.982465 -2.31064 -1.26635
1172 2 26.7536 14.5293 5.25843 -2.28139 -1.68481 0.845309
1168 1 23.3168 14.5812 5.23492 0.502375 3.38175 -2.10854
1171 1 25.018 16.3097 5.32964 -2.08941 -1.44941 -0.241178
2066 2 23.2469 16.446 7.02753 -2.41685 -0.882187 3.39302
2069 2 25.1661 14.4961 7.0829 -0.544533 -1.01697 2.49503
2068 2 23.2582 14.3903 8.66702 3.42115 -1.44424 5.0349
2105 2 3.42924 18.0095 6.94429 3.10073 4.82926 -1.45507
1204 2 1.67507 18.1548 5.16554 0.0666877 -0.087243 1.55174
1207 1 3.65622 19.8264 5.23085 0.617336 -2.60487 -1.72254
1264 2 1.7618 21.6535 5.27237 -1.22819 -2.40804 2.16368
2102 1 1.72637 19.9969 6.92427 -0.370397 3.86355 -2.93418
2165 3 3.55609 21.653 7.09928 -3.77144 0.124584 0.673216
2107 2 3.38245 19.8246 8.8759 3.5218 1.08175 4.01955
2164 3 1.65588 21.6079 8.78424 0.95142 0.0952517 5.08892
2101 2 0.145076 18.059 7.13763 2.86008 -0.830287 3.20099
2109 2 7.22498 17.9949 7.25141 -1.61517 -1.77767 -1.9473
1208 1 5.41596 18.0249 5.39396 0.37431 -0.125904 -2.98401
1211 2 7.18217 19.9019 5.17409 1.14179 -7.8177 -2.11715
1268 3 5.35176 21.603 5.35482 -0.113378 -1.38722 -0.490659
2106 1 5.33781 19.7752 7.14186 1.25772 -4.02505 -3.31896
2169 3 7.14041 21.4676 7.08688 3.73167 0.971915 0.245192
1212 1 8.8676 18.0954 5.39356 0.964775 -0.070982 -3.43017
2168 3 5.4313 21.6688 8.83559 -0.377876 -0.490557 8.10305
1272 1 8.88856 21.7482 5.25699 2.4981 -1.49016 5.24716
2110 1 8.9283 19.8198 7.06013 2.18645 -2.21883 2.67686
1216 1 12.5842 18.0268 5.51646 0.202215 -4.80428 4.85013
2113 2 10.673 18.1564 7.10597 0.141999 -0.785836 -4.19358
1215 2 10.7358 19.8438 5.37812 0.937975 -1.77403 -2.75302
1276 1 12.5138 21.5887 5.2895 3.53039 -3.00551 1.00243
2114 1 12.6731 19.8999 7.13378 -3.09974 0.140331 -0.152345
2173 2 10.819 21.6612 7.17959 0.182219 -1.60223 -1.04521
2116 1 12.3715 18.0672 8.88819 -1.77356 4.03246 2.49513
2112 1 8.9475 18.1139 8.87173 3.30002 -3.12964 1.61947
2172 1 9.12931 21.6474 8.858 0.222646 1.18713 -3.79253
2117 2 14.3565 18.1381 7.06784 -3.55277 -1.47602 0.726743
1220 1 16.0051 18.1323 5.31531 4.58252 0.448226 2.06774
1219 2 14.2109 19.9694 5.42692 -3.64504 4.61492 -0.738085
1280 1 15.9791 21.6756 5.28764 -1.10179 1.47625 -1.5399
2118 1 16.1259 19.9426 7.19125 -0.139413 0.988307 1.34792
2177 2 14.1335 21.644 7.26778 -1.84452 0.294677 4.74101
1223 2 17.7333 19.9057 5.24864 0.684526 -0.888703 -0.457775
2119 2 14.2922 19.7523 8.84806 1.64613 -0.35154 2.7624
2121 2 17.9632 18.1476 7.12004 4.79129 0.48624 2.38171
2181 2 17.8658 21.5864 7.10899 -1.23993 0.783979 -4.25441
2125 1 21.4985 18.0753 6.96963 -1.98964 -2.14318 -3.05829
1224 3 19.6317 18.1652 5.25956 -2.96054 -0.34336 -1.55167
1227 2 21.4594 19.6777 5.24607 -1.61329 -0.654575 0.994286
1284 3 19.6871 21.5461 5.33003 -0.109632 6.66764 -0.106135
2122 1 19.4872 19.8511 7.04901 -2.4717 1.14874 3.1351
2185 2 21.4681 21.5923 7.14116 -0.142367 -2.97371 1.47195
2184 1 19.6065 21.6867 8.82033 -3.88972 -1.0525 -1.63772
1228 1 23.2557 18.1508 5.25702 1.03384 -0.0135361 0.16947
2129 2 25.1084 18.0591 7.175 -1.0464 1.22104 -0.804984
1231 3 24.9731 19.9606 5.28218 4.84525 2.25398 -1.43724
1288 3 23.1952 21.5365 5.37721 -2.44682 -3.42512 0.720095
2126 1 23.3502 19.6904 7.08934 3.15439 0.00571816 2.85083
2189 2 25.0228 21.5731 7.08146 -3.56976 -4.01178 -0.522666
2131 1 25.0807 19.8864 8.77066 -0.666928 4.74421 -0.655615
2132 1 26.723 17.998 8.87562 1.22365 4.37822 -1.01095
1267 3 3.75506 23.4046 5.23837 4.98839 -0.662746 3.67277
1324 3 1.8665 25.1259 5.38227 -0.552216 -3.24288 2.69141
2162 3 1.87606 23.3214 7.02269 4.88261 9.63495 -5.85324
2225 3 3.6878 25.1851 7.09613 -2.20276 0.339301 -0.0365607
2221 2 0.0159557 25.2484 7.15355 -2.80906 2.10412 3.87353
2224 3 1.82137 25.2594 8.86745 0.869836 3.23313 0.523253
1263 1 -0.00843687 23.3037 5.32716 2.13133 -7.21212 0.0293178
2167 3 3.60868 23.4097 8.83799 2.15723 0.349663 -2.4776
1271 2 7.25906 23.4603 5.37626 -1.45194 5.91208 -1.57334
1328 3 5.35928 25.2274 5.31582 -0.566302 3.85956 -0.978588
2166 3 5.4976 23.4795 7.1243 0.27111 -1.50058 1.64931
2229 3 7.25093 25.2194 7.08613 -0.470555 1.71978 3.61936
1332 3 9.06545 25.2088 5.36368 0.831158 2.37127 1.1218
2170 3 8.88937 23.5314 7.06581 0.761678 0.720663 -3.52332
1275 2 10.8694 23.3118 5.35597 0.169473 2.56058 -4.31228
1336 1 12.5221 25.2498 5.30099 2.06909 0.725266 1.57676
2174 1 12.5318 23.3723 7.19453 -2.85462 -0.825269 -0.739341
2233 2 10.9142 25.1485 7.17003 4.11246 -1.50798 -1.91543
1279 2 14.3413 23.5231 5.30588 -3.01898 -1.36715 1.96976