ITEM: TIMESTEP
61200
ITEM: NUMBER OF ATOMS
13500
ITEM: BOX BOUNDS pp pp pp
-5.0319599336301479e-02 5.3570319599327846e+01
-5.0319599336301479e-02 5.3570319599327846e+01
-5.0319599336301479e-02 5.3570319599327846e+01
ITEM: ATOMS id type x y z vx vy vz
7 3 3.50118 1.79279 1.92156 2.53248 -0.00546612 1.2584
64 3 1.92374 3.56767 1.71323 -3.21334 3.55174 -0.30191
902 2 1.68857 1.81338 3.54669 1.25526 -4.92216 1.34524
965 3 3.53371 3.45548 3.57873 1.11596 1.70011 -1.56966
5 3 3.59487 -0.0107527 0.0303258 1.02414 1.89771 -0.158949
905 3 3.45473 -0.0488049 3.61477 -0.539356 -2.07179 -1.99058
2 3 1.79007 1.81681 -0.039598 -0.410166 -0.281183 -2.88396
4 3 1.7984 0.0793011 1.79572 1.59512 -6.92088 -0.869191
3 3 0.0851838 1.82902 1.81575 -1.33121 -2.256 -0.226749
961 2 0.0291398 3.42213 3.71524 5.21545 -5.88801 0.0679611
11 3 7.05735 2.02014 1.81569 -0.928108 0.341346 0.224124
68 3 5.27925 3.56696 1.81171 -6.00332 -3.74935 -0.345812
906 2 5.37492 1.71596 3.76583 -5.03934 0.765265 -1.90658
969 3 7.06428 3.58344 3.56479 -3.32455 -0.929303 3.56223
6 3 5.33944 1.9553 -0.0162182 0.0881724 3.18335 -1.72529
12 2 8.72889 -0.0222624 1.82913 -0.497312 -0.152642 -2.36019
910 1 8.70637 1.7307 3.4445 2.51712 3.26596 5.82243
69 2 7.1376 3.64986 0.174751 -3.88854 -0.916475 1.54884
9 2 7.01805 0.244379 -0.00783618 -4.11084 3.45167 -0.198967
72 2 8.86 3.66951 1.9143 -2.2402 4.23505 3.08575
8 3 5.28948 -0.0267597 1.73855 -0.412677 3.35117 1.56682
15 2 10.7247 1.80967 1.8689 -0.668983 -1.64709 2.86318
76 2 12.5749 3.38812 1.92541 -3.76974 1.22263 -0.626197
914 1 12.6042 1.64675 3.66452 0.0394635 0.733333 0.673966
973 1 10.7329 3.55333 3.64013 3.78228 -2.27709 -3.4078
913 1 10.7741 0.0801701 3.69605 1.40778 3.13975 -2.82918
16 1 12.4307 0.106635 1.6041 -0.557729 -2.14111 1.49087
10 1 8.90891 1.82436 0.0131332 -1.41037 2.39062 1.70813
19 1 14.243 1.71791 1.66021 0.551668 2.44508 1.51139
80 2 15.8356 3.29901 1.63961 -0.090114 3.09856 2.16816
918 2 16.0417 1.66382 3.62616 0.718488 -1.33504 -1.38681
977 2 14.1406 3.66738 3.62334 -3.0001 -1.82988 3.49074
77 1 14.123 3.55972 -0.0070352 2.8994 3.22634 -5.67211
921 1 17.7722 0.0339928 3.43331 -0.350284 0.510151 1.34532
20 1 16.0588 -0.0162247 1.66235 -7.27481 2.4538 -2.91848
23 2 17.9051 1.57787 1.70421 0.884306 0.501298 -0.171423
81 1 17.9051 3.54362 0.0681393 -2.89459 0.963013 2.32589
981 3 17.8797 3.49996 3.59852 3.08448 -6.57446 -1.0604
27 3 21.5876 1.97376 1.74568 -0.150647 1.95406 3.08134
84 3 19.6465 3.45449 1.86553 1.41524 5.26552 1.46004
922 2 19.7632 1.89827 3.68892 -0.809435 -1.20412 2.86045
985 1 21.4254 3.65036 3.68067 2.99942 -2.63919 -3.09348
925 2 21.4433 0.0916228 3.49683 -5.39881 3.1358 1.24929
24 1 19.7309 0.165894 1.73591 1.88883 0.29426 5.24134
22 2 19.7106 1.85 0.00496656 1.1648 -1.79286 0.0304116
85 2 21.4803 3.46562 -0.00604606 3.58339 2.10529 3.34422
31 2 25.0914 1.84209 1.89091 -0.882294 0.349003 1.45504
88 3 23.24 3.68702 1.88737 -1.87119 3.84866 -2.24772
926 1 23.2757 1.72894 3.58181 0.797819 1.52254 -0.331788
989 3 25.0342 3.67271 3.62138 -3.09632 -0.0831254 -1.43322
89 3 25.0175 3.70474 -0.0509599 0.626338 1.78729 -1.28066
26 1 23.4488 1.9079 0.153803 -3.17686 0.292515 -1.79539
28 2 23.2334 0.0872659 1.75549 -2.71564 0.450416 8.13913
929 2 25.1933 -0.0318643 3.57319 -1.42699 1.05131 3.45687
67 3 3.55519 5.28095 1.79843 -5.82662 0.389013 -3.28235
124 3 1.79901 6.93692 1.84708 -0.0220193 -2.86328 -0.916533
962 3 1.85937 5.25385 3.53732 1.11808 1.86496 -2.74039
1025 3 3.60065 7.11216 3.47212 -0.989533 0.807984 1.11796
62 2 1.70828 5.29287 0.00813966 -0.661781 -2.76832 0.434724
63 1 0.0445589 5.32725 1.75476 -2.85033 0.274424 -3.6791
125 2 3.59961 7.15022 0.0826039 -0.850202 -4.21603 0.947227
1022 3 1.90782 8.84548 3.55797 -2.57932 -0.846376 -0.492465
1021 2 0.000699921 7.1486 3.63691 3.80827 -2.28334 0.150585
71 1 7.24047 5.5301 1.7698 1.1517 -1.05305 -3.34398
128 2 5.35792 7.19789 1.67628 0.4784 1.57506 3.75996
966 3 5.29283 5.47255 3.55312 -4.44421 3.93647 1.53708
1029 3 7.09299 7.29858 3.51225 -1.2082 1.01275 -1.68163
66 1 5.31219 5.60727 0.126891 -1.44925 4.00716 -0.78766
970 3 8.83781 5.29149 3.68853 -0.50196 2.38837 -4.09149
1026 3 5.25301 8.88977 3.4717 4.93388 3.9438 0.00851263
132 2 8.85434 7.09528 1.66503 -0.960893 3.83952 2.99259
75 3 10.6252 5.33528 1.79192 0.197435 -4.5939 -1.82973
136 1 12.3659 7.14801 1.69717 -0.499069 0.882139 -4.68513
974 1 12.4852 5.35781 3.53642 -0.24836 -3.17485 0.00963109
1033 3 10.6184 7.17177 3.49381 -0.326588 1.20761 -3.05905
1034 2 12.5843 8.8578 3.54958 1.98735 0.992417 -0.0559838
130 1 8.9563 8.8651 0.0331948 1.18996 -1.13775 0.359577
74 2 12.4709 5.28807 -0.0309844 2.9961 -2.76077 2.77881
79 1 14.2733 5.38379 1.7764 -3.7448 1.90244 -1.11072
140 1 16.2476 7.15908 1.81635 1.46672 -1.52032 0.474518
978 2 16.216 5.1721 3.46367 -2.46288 -4.53368 3.67847
1037 2 14.3358 7.05547 3.52159 -0.414749 1.79224 0.0555672
137 2 14.466 7.13719 -0.0391434 -6.7827 3.41556 -3.18301
1041 1 17.8197 7.078 3.64739 1.08342 1.57847 -0.468522
78 1 16.1064 5.2488 -0.0350738 2.56162 3.21342 6.24535
141 3 17.8537 7.16647 -0.039399 -0.290178 -5.97213 -0.890606
83 2 17.9185 5.32361 1.63239 2.91079 -0.205884 -4.99549
87 3 21.4726 5.34665 1.6579 3.35896 -3.58046 0.642218
144 1 19.8137 7.05952 1.85114 2.14645 0.549411 0.638281
982 2 19.6851 5.34853 3.73732 -0.13396 -0.626831 3.02171
1045 1 21.4229 6.91534 3.78367 -3.93903 3.15631 1.52177
82 1 19.5525 5.34483 -0.0146157 0.547606 -0.288901 -0.582708
143 2 17.8641 8.71529 1.88348 2.07865 -0.49795 -3.77268
145 2 21.5352 7.17077 0.00730949 1.38667 1.2516 -0.343637
142 1 19.6023 8.81398 0.0265708 -1.44567 -1.80042 -2.23148
1042 1 19.8957 8.82144 3.56234 3.45362 -4.74235 1.24986
91 3 25.113 5.413 1.70079 0.38496 -0.915461 -2.48365
148 3 23.2995 7.10655 1.85847 2.40952 0.901734 0.268253
986 3 23.324 5.31546 3.45958 -1.00355 -1.46753 4.20201
1049 1 25.3376 7.10778 3.66181 -3.6413 -2.02735 0.595761
127 2 3.49139 8.92017 1.76894 0.0884044 -8.58319 0.883355
184 2 1.7048 10.6617 1.77818 -0.611865 -1.75118 -1.00436
187 2 3.4842 12.7666 1.73516 -0.466928 -2.62866 1.44675
1082 1 1.6441 12.6791 3.62732 -1.68817 1.06201 -2.01655
1085 3 3.52626 10.8399 3.4447 5.111 1.88596 -3.69295
1081 3 0.114476 10.639 3.52388 0.302961 -2.08413 2.83594
182 1 1.75802 12.531 0.166591 0.617887 -1.75418 0.220289
181 1 0.12492 10.7685 0.069953 5.21197 1.39131 0.801101
131 3 7.04629 8.93129 1.68309 1.55228 -0.133021 1.97715
188 2 5.23122 10.9456 1.67008 -1.2001 -3.5159 1.67737
191 1 7.16006 12.7245 1.68072 -3.62085 -6.88173 1.41443
1086 2 5.49707 12.4166 3.58827 6.7117 2.15268 3.39747
1089 1 6.89526 10.7225 3.52702 2.50364 -1.56988 -2.31653
189 2 7.06986 10.775 -0.0147672 -0.733668 -3.02708 -1.13778
1030 3 8.81502 9.05658 3.60808 -0.809615 2.31495 0.610486
126 1 5.24866 9.15389 -0.0384687 0.526221 0.629451 0.81145
1090 2 8.89906 12.5162 3.60727 1.2585 2.19593 -1.31648
192 2 8.90041 10.745 1.7528 1.0186 -1.80559 1.09625
135 1 10.6758 8.89392 1.79616 1.31322 -5.18423 0.161063
195 1 10.5857 12.6162 1.77678 -5.3034 -0.425944 -0.472848
196 3 12.5004 10.8677 1.8566 0.827057 3.73188 1.441
1093 3 10.7328 10.7335 3.63882 -2.29139 -2.0332 -3.01014
1094 2 12.513 12.6586 3.5817 -1.9114 1.58007 0.622649
190 1 8.97613 12.5667 -0.035836 -2.00761 1.50194 -5.39667
194 3 12.5471 12.525 0.0331232 -0.109275 -1.77244 -0.087949
193 2 10.6175 10.8442 0.141794 0.572409 3.27451 -5.17812
134 2 12.3462 8.9749 0.195237 -0.86816 1.26356 2.37834
1038 2 16.0885 8.97242 3.47844 3.36625 2.47668 -0.513462
139 3 14.2795 8.91691 1.66014 1.13799 1.09711 1.03823
199 3 14.2781 12.5517 1.83398 0.330529 4.4145 -0.7468
200 1 16.2261 10.6122 1.93129 2.82648 -0.838427 2.54125
1097 3 14.3731 10.7282 3.54005 -0.337945 -1.19474 2.92712
1098 2 15.9424 12.6208 3.55623 2.4503 -4.73223 -0.767691
198 3 16.1282 12.4165 0.0837927 2.74245 -0.521998 -1.76538
1101 1 17.7817 10.6773 3.72399 -0.861258 -3.69118 -0.0864085
197 2 14.3253 10.6147 0.0386337 0.981054 -2.54143 4.82037
147 2 21.4688 8.90297 1.84198 -0.229929 -1.59921 -0.785334
203 2 17.9292 12.3504 1.84414 1.47491 2.02572 1.06253
204 1 19.6366 10.6563 1.98495 0.871376 4.21978 -0.107925
207 1 21.3626 12.4994 1.84442 -2.3983 -1.06735 2.00945
1102 2 19.5141 12.523 3.61791 -3.01285 -0.319209 -3.74963
1105 1 21.409 10.7434 3.72284 -0.933638 -1.4937 3.95375
205 2 21.2613 10.6917 0.0766552 2.18825 0.419841 0.653363
202 1 19.7336 12.4288 0.0605624 2.73377 2.35009 4.71363
1046 3 23.352 8.96347 3.65591 -5.59716 2.71226 5.33897
151 3 25.1086 8.98287 1.76766 -1.11243 3.81467 -1.17015
146 3 23.275 9.0894 0.161948 2.31073 1.61112 -2.07174
208 1 23.2329 10.7649 2.03077 -0.850802 0.397497 3.11141
211 1 24.9715 12.4777 1.67927 -3.22637 0.898235 -4.32832
1106 2 23.3913 12.435 3.504 1.39691 0.627804 -0.411493
1109 2 25.1064 10.6413 3.60471 3.43173 1.70007 3.22582
206 2 23.1953 12.3706 0.0797747 -2.44105 -0.187559 1.74069
209 2 25.2439 10.8441 0.0551899 4.91651 3.35702 2.45072
1050 2 26.7351 9.10122 3.54797 2.90379 1.28643 0.117886
244 2 1.6941 14.246 1.69975 -1.82821 -1.78029 3.73887
247 2 3.50022 15.9741 1.60499 1.64672 -0.525965 -4.17583
1142 1 1.80112 16.1075 3.50401 2.59083 -0.0497932 2.58889
1145 1 3.50322 14.2979 3.51998 -0.433798 -3.26814 -2.83249
1141 2 0.0278977 14.4178 3.56704 -1.33068 -1.59768 -0.806456
243 3 -0.0363742 16.0668 1.72685 1.71154 -1.45669 -0.956123
248 1 5.22719 14.2011 1.75579 -2.84045 -1.52222 1.03699
251 1 6.79304 16.0238 1.61529 -4.84746 -5.46209 -7.22141
1146 2 5.38086 16.1366 3.40977 -0.487998 -0.298883 -0.278878
1149 2 7.05403 14.207 3.38032 1.50184 3.6632 2.40913
1150 2 8.89172 16.1647 3.36283 2.64686 -1.41606 -2.89878
308 1 5.2564 17.7783 1.58319 2.11769 -1.46752 -1.59687
252 2 8.90028 14.4201 1.5382 3.06477 -9.61046 -2.73381
312 2 8.93921 17.7979 1.58691 -0.534622 5.0238 -0.581212
255 3 10.6532 16.1022 1.64997 0.765034 0.70176 -0.570362
256 3 12.5162 14.3876 1.706 2.7619 2.83319 -2.16397
1153 1 10.6124 14.2891 3.52756 -0.17654 -2.54336 2.89205
1154 2 12.4537 15.8945 3.57216 0.657456 2.67794 -0.0520829
316 2 12.6043 17.7235 1.88051 0.924253 -1.10345 -4.21597
1213 1 10.6425 17.7621 3.38873 -3.60632 -4.44498 0.121289
259 3 14.4953 16.1043 1.70964 1.45116 -2.11479 -0.147572
260 1 16.1313 14.2086 1.89765 0.438338 3.21352 -4.03362
1157 3 14.3523 14.3823 3.61315 1.08196 -1.1417 3.6426
1158 2 16.248 16.1395 3.64099 -3.68304 -1.1919 -2.61613
263 3 17.7833 16.134 1.85887 0.216497 0.708409 0.970123
1217 1 14.4638 17.619 3.55405 2.81855 -1.47106 1.91358
257 3 14.242 14.2775 -0.0334861 3.18459 0.233965 0.66015
1161 1 17.9593 14.0145 3.76433 -0.748994 -0.702376 0.3861
264 2 19.6571 14.2919 1.86978 1.20992 -2.71466 -1.81076
267 2 21.3271 16.1058 1.70209 2.54431 0.121427 2.23029
1162 1 19.6598 15.9958 3.52151 -0.511305 -1.85274 -1.05614
1165 1 21.3385 14.3392 3.57136 -4.07641 -1.20092 4.38409
262 1 19.6097 16.1686 -0.0483915 4.5721 -2.55236 -0.560909
265 1 21.4737 14.2667 0.155724 0.617142 0.929069 -2.60629
261 2 17.889 14.3375 0.128207 -0.285631 0.722411 3.54051
268 2 23.223 14.3317 1.85443 -2.14952 2.9861 -0.999705
271 1 24.9702 16.1354 1.71852 1.97798 -0.386759 -2.05017
1166 2 23.1994 16.1687 3.58356 -0.00812683 2.56118 -0.519198
1169 1 25.1667 14.3471 3.42414 -0.373831 0.49595 2.29668
328 2 23.2229 17.7541 1.73459 -1.99422 2.44372 -3.05182
266 1 23.0489 16.0519 0.0356293 -0.899144 2.03321 -1.56718
269 1 24.8686 14.2971 0.0679474 2.2881 -0.660109 1.99295
270 2 26.7396 15.989 -0.00889517 -1.71011 2.94369 1.80061
304 1 1.86433 17.8746 1.69098 -0.507279 0.718521 3.41121
1205 2 3.61204 17.89 3.41345 -0.513371 -3.398 0.211535
307 1 3.68984 19.6691 1.67475 4.02747 5.35012 0.11946
364 2 1.71722 21.4455 1.6944 -0.253363 5.00533 -0.95364
1202 3 1.82099 19.6791 3.51312 -0.920397 0.98742 0.772369
1265 1 3.37615 21.5171 3.4041 1.49582 1.00202 1.56881
1261 1 -0.00301098 21.5243 3.49472 -0.290191 0.49844 -0.323149
1201 3 0.0796389 17.848 3.425 2.85458 -0.581564 -1.92877
303 3 0.0349886 19.7633 1.77877 2.97344 2.25351 3.50631
365 3 3.52948 21.5119 -0.0193265 -2.62274 -2.18082 -0.358946
302 3 1.7375 19.7217 -0.0191842 -0.909649 1.85254 2.97017
1209 1 7.22323 17.8464 3.31556 -0.218316 -1.79299 -0.465842
311 3 7.03604 19.5753 1.70038 6.04591 0.105428 -5.54756
368 1 5.11778 21.5176 1.77096 1.4009 -0.219343 2.39245
1206 2 5.32884 19.6115 3.3922 -1.65622 0.304616 -1.638
1269 1 7.07941 21.4306 3.43992 1.15661 2.67986 -2.11538
369 2 6.93664 21.5237 0.0211054 -0.453205 0.0332725 -1.97131
372 2 8.83806 21.2663 1.62716 -2.22454 0.658762 1.60944
310 1 8.99954 19.8149 -0.0587692 -0.26043 -4.30425 -5.25381
1210 2 8.97799 19.7587 3.44675 0.703262 0.544973 1.9919
315 1 10.7984 19.486 1.60331 -0.42797 0.998142 -5.32979
376 2 12.4318 21.6631 1.69766 3.10052 0.121955 1.7762
1214 2 12.5236 19.5706 3.52887 3.11277 2.90856 -1.11002
1273 1 10.6739 21.391 3.53841 -0.824709 -1.92052 -3.50422
314 1 12.6109 19.7335 -0.00536558 -3.27484 -0.230458 -3.17652
320 3 15.9674 17.9677 1.69826 6.0441 -1.78365 -1.38421
319 3 14.2702 19.8046 1.84524 4.96714 2.15331 2.89523
380 3 16.0862 21.5158 1.69702 -2.39057 0.670389 -0.74545
1218 2 15.9395 19.734 3.41299 -1.88856 3.04756 1.30415
1277 1 14.1585 21.5844 3.47216 2.61788 -3.72988 0.0724201
317 3 14.227 17.9334 0.0768423 -3.10833 -0.385704 -0.122503
321 3 17.8168 18.0927 -0.0443322 -2.8499 4.29824 -0.712593
1281 2 17.835 21.418 3.41754 5.20105 -1.43392 -0.449942
1221 1 17.9178 17.9641 3.55858 2.30483 -0.510147 -5.74193
1225 1 21.3759 17.8633 3.52886 -1.50054 0.457753 1.95189
324 2 19.6114 17.9644 1.88212 -0.69014 3.53989 -2.89608
323 1 17.8537 19.6606 1.80889 -2.6875 -1.61889 3.47038
327 2 21.3466 19.6943 1.73206 -1.7013 1.41588 -2.09288
384 3 19.4987 21.521 1.63764 -3.50156 -0.985657 0.267527
1222 1 19.5676 19.8247 3.62101 0.345459 -3.22894 -0.483519
1285 3 21.5486 21.3688 3.63331 3.36476 0.16341 6.46876
322 2 19.6215 19.5504 0.103866 -5.04092 -5.52857 1.71738
1229 3 25.0377 17.9607 3.40013 2.74743 1.77751 2.77424
331 3 24.9504 19.6564 1.68713 0.226381 2.08726 -0.730447
388 3 23.2227 21.5061 1.77371 -1.19586 -2.05056 -1.15041
1226 3 23.1717 19.6077 3.44966 2.27442 3.62676 0.687769
1289 2 25.088 21.4285 3.50131 -0.651172 0.829959 -1.17198
329 3 25.1782 17.8819 -0.0283701 0.860309 -4.57399 0.35393
367 2 3.39787 23.2431 1.54143 -0.482827 -3.23434 0.987451
424 2 1.83129 25.0984 1.70828 1.85043 -4.35852 -0.895637
1262 1 1.81033 23.2749 3.40362 0.728773 -2.20278 1.87485
1325 1 3.63904 25.0375 3.45838 0.852694 -0.438345 5.40923
363 1 0.152592 23.2106 1.76416 0.422002 0.735629 -3.17868
421 1 0.0206731 24.9764 -0.014421 0.318692 0.223967 1.20955
371 3 6.96242 23.3855 1.74811 -1.03989 -1.30479 2.14935
428 2 5.10832 25.0472 1.62311 0.657807 0.58457 -2.75964
1266 2 5.27326 23.2067 3.49255 -1.87174 -1.27424 -0.895072
1329 3 7.12068 25.0292 3.50124 0.0585398 -0.886648 5.97389
1270 2 8.87704 23.3468 3.44402 4.43222 -1.84707 -1.09119
432 2 9.00162 25.0596 1.54081 -3.49413 3.22851 -4.07471
375 1 10.7616 23.3285 1.5806 -4.35808 -0.0956196 -2.05679
436 2 12.6749 24.9614 1.71227 4.96159 2.11412 4.7251
1274 2 12.3282 23.3885 3.50424 -1.19398 -0.185332 0.702633
1333 1 10.7 24.9996 3.41464 0.185246 2.35024 1.1187
1334 2 12.4055 26.6565 3.38918 3.73738 0.742439 6.02161
1330 3 9.04063 26.6832 3.2734 -3.05875 1.09702 7.09132
379 1 14.2937 23.3846 1.80969 2.67581 0.321708 1.54281
440 2 16.1614 25.0254 1.63084 -2.90665 0.45029 3.17166
1278 2 16.2178 23.3214 3.43187 1.9065 1.71934 -0.738817
1337 1 14.396 24.9626 3.5244 0.492476 -2.60341 3.86667
1341 1 17.798 25.1944 3.45456 0.447736 0.0373351 0.713787
439 2 14.4175 26.7075 1.76394 0.386494 -4.62447 -6.03551
383 3 17.9865 23.3268 1.79326 -2.43646 3.87613 2.2419
387 3 21.418 23.1918 1.78598 1.05239 -1.13329 -2.83593
444 3 19.6188 25.0134 1.58342 -0.952037 -0.256788 -0.0757091
1282 2 19.7707 23.1887 3.46709 0.110178 -4.38435 2.63172
1345 3 21.538 25.0355 3.34772 0.766284 -1.19389 0.866731
445 3 21.4754 25.0263 0.00994305 -6.37276 -2.56872 -3.50726
391 3 24.8135 23.183 1.66569 -1.3355 -1.72498 -1.67734
448 2 23.1664 25.192 1.61272 1.45683 0.237593 6.3864
1286 3 23.2433 23.1948 3.48561 -0.538779 2.60019 -1.11511
1349 3 25.0169 24.9677 3.45979 -3.37033 -0.364827 -4.47589
449 2 24.8559 24.9949 0.0289157 0.0944823 1.3442 -1.21534
451 1 24.9595 26.7564 1.65186 2.13749 0.0948368 -4.04123
1346 3 23.2272 26.7572 3.44109 -0.215269 -1.12658 -0.731002
907 1 3.54436 1.74064 5.41409 1.90861 1.12984 0.855707
964 1 1.77535 3.46434 5.45862 -0.160659 -1.36411 -0.813106
1802 2 1.64797 1.68213 7.18801 -3.66831 1.6202 0.0995707
1865 2 3.53631 3.5289 7.24233 1.73974 -3.26406 -0.118877
1805 2 3.66253 0.0532342 7.11294 -0.0285894 2.21486 0.564032
1861 2 0.0688788 3.53522 7.15361 -1.99188 1.13472 7.1756
904 1 1.58798 0.155365 5.3608 1.06161 4.81949 1.30157
1803 1 -0.0444265 1.86326 8.88016 1.95699 1.59138 -0.248483
908 3 5.34358 -0.0139393 5.4217 -1.73978 0.824242 -1.77305
1809 2 7.09852 0.120693 7.13629 -5.33598 -3.17658 -0.479528
911 2 7.11491 1.81066 5.44237 1.36203 -5.1043 -1.29193
968 3 5.23781 3.60007 5.3167 3.21959 -1.7111 -4.4566
1806 1 5.23097 1.90482 7.1698 -3.46993 0.674149 0.837621
1869 2 7.09983 3.5795 7.26532 1.7127 -3.99989 -2.18518
912 2 8.85267 0.0831752 5.47425 2.34134 1.72403 3.24413
1808 2 5.31277 0.0470639 8.83095 -1.05426 -2.81496 -3.37153
1810 1 8.8597 1.85466 7.345 -2.44799 0.378372 1.33821
972 3 8.95059 3.61586 5.40534 0.368153 4.03106 -1.1586
1813 1 10.6387 -0.00135744 7.10408 -0.827044 1.29963 -2.24451
915 2 10.6231 1.74758 5.32373 -0.479133 -0.45847 2.35996
976 2 12.4408 3.29978 5.19587 -0.287497 2.00576 1.86865
1814 1 12.4908 1.67771 7.11341 -4.28647 -1.57488 0.410474
1873 3 10.762 3.50113 7.21076 0.927577 0.599909 1.78827
1820 3 15.996 0.00219494 8.77021 -2.59004 1.92967 -2.26421
919 1 14.3768 1.72879 5.27419 3.43419 7.36584 4.11327
980 1 16.0479 3.54229 5.15692 0.0618085 1.47058 1.21294
1818 2 16.0523 1.75966 7.0236 -1.74059 -4.50467 -0.689969
1877 1 14.2509 3.50477 7.05332 1.72949 -1.42043 -3.65648
1880 1 16.0522 3.50145 8.86713 0.548185 0.101523 2.45295
923 2 17.789 1.95375 5.48266 1.05083 3.83089 -3.24608
1819 3 14.2859 1.6199 8.85948 -0.572229 -1.79643 -2.35634
1881 2 17.8417 3.49227 7.34545 -0.671765 -4.66381 -4.42952
924 3 19.6976 0.0597709 5.2391 -5.50386 0.332118 1.54672
927 3 21.5101 1.84422 5.42458 2.26985 -3.49956 2.24209
984 1 19.6469 3.58107 5.48176 -5.62764 0.804952 2.33028
1822 1 19.7138 1.79346 7.18173 -2.91116 4.75837 1.12796
1885 2 21.4096 3.63942 7.14777 1.36195 1.42119 -1.04765
931 1 25.0083 1.80321 5.32853 0.165854 0.787971 1.15215
988 2 23.2917 3.52149 5.45523 7.17735 2.08597 2.08429
1826 1 23.2689 1.51657 7.0014 -2.31261 -1.36866 -3.19062
1889 3 25.1469 3.45948 7.12082 -0.523075 0.821757 -1.29254
1829 2 25.2726 -0.0456965 6.9745 -0.607083 -2.00741 -1.51053
1831 3 25.0855 1.81032 8.84128 1.71438 2.58331 -0.0934501
1828 3 23.3531 -0.0129149 8.80073 -0.0230276 0.3337 0.835606
928 2 23.4521 -0.0369272 5.44319 -0.729718 3.5841 1.62306
1921 3 0.0529379 7.19319 7.14687 -0.445831 1.01672 3.77639
967 3 3.6283 5.34602 5.44315 -0.0508444 1.85532 -5.31325
1024 3 2.01645 7.1342 5.25621 1.56385 -2.54786 -3.68791
1862 3 1.76195 5.43228 7.2836 -0.062711 -1.06346 0.00610958
1925 3 3.62288 7.20835 7.14286 4.09896 -1.11349 -2.41196
1863 3 -0.0211046 5.384 8.85866 0.605419 -3.40411 4.1628
963 3 0.109509 5.3383 5.40341 -3.85566 -1.69387 -4.55278
971 3 7.09658 5.44799 5.497 -0.93158 -2.15916 -3.11812
1028 3 5.38722 7.2874 5.30361 -1.21816 -3.0632 0.667736
1866 3 5.32097 5.39003 7.1394 1.73879 -2.98471 3.80811
1929 3 7.12092 7.2068 7.1957 0.667575 -1.33475 1.67105
1928 1 5.32952 7.24824 8.83041 -1.42265 -2.91881 3.40702
1930 3 8.83935 8.86129 7.11773 2.74502 0.953443 4.44599
1871 2 7.1593 5.4153 8.88281 2.73498 -0.81177 -0.852639
1032 3 9.04808 7.16485 5.34409 -0.974464 -2.99756 2.23543
1870 3 8.92689 5.45067 7.20671 -2.73539 -5.10874 -0.203077
975 1 10.6384 5.34724 5.42577 0.498291 1.8124 -0.61574
1036 1 12.4562 7.21069 5.26746 -2.49343 1.69325 -1.57137
1874 1 12.4164 5.35304 7.08116 5.25814 1.9467 1.8145
1933 3 10.9101 7.15145 7.27775 2.01501 3.50936 -0.871609
1035 3 10.6748 8.84808 5.36114 3.83667 -0.984092 -3.01511
979 2 14.2043 5.34452 5.30732 -0.49331 -1.62634 1.27097
1040 1 16.019 7.13731 5.41758 0.55038 -0.746297 -2.54056
1878 2 15.9195 5.18375 7.18237 3.01796 -4.94424 -2.73835
1937 1 14.2259 7.09458 7.17402 -0.787576 -2.24604 -0.486717
983 1 17.794 5.34535 5.40127 2.07779 -1.37801 -1.89978
1941 1 17.7287 7.01873 7.0832 0.4369 1.97576 -2.19808
1938 2 16.0719 8.8404 6.93131 -3.23818 -0.676092 -0.772891
987 1 21.4344 5.21994 5.49103 -1.04074 -1.57005 -0.138613
1044 2 19.5881 7.08583 5.41982 4.78393 -5.39045 -3.09237
1882 2 19.7694 5.40075 7.03355 0.525593 3.7222 -1.67211
1945 1 21.4428 6.98987 7.26028 -0.471488 -1.5493 1.09041
1047 2 21.3989 8.84962 5.40104 1.68224 1.85575 3.27293
1947 3 21.4105 8.87222 8.84554 3.35142 0.648545 2.79115
1942 1 19.5869 8.84104 6.97778 -3.36926 -2.48832 -3.85611
991 3 24.95 5.31022 5.31932 1.82273 -0.438553 -2.70681
1048 2 23.3094 7.04045 5.40874 3.84944 -1.63961 -0.184023
1886 1 23.203 5.3387 7.15367 -3.92408 0.907452 0.197202
1949 2 25.0792 7.09365 6.93022 1.17755 3.51264 5.82073
1946 3 23.2121 8.83551 7.05664 2.07702 1.56737 -2.4704
1952 2 26.6769 7.01971 8.86101 -0.714831 4.78075 2.74323
1922 3 1.93789 9.04656 7.20724 -1.33082 3.61012 0.889742
1027 3 3.64386 8.98634 5.37864 5.28737 0.108486 2.31954
1084 2 1.78291 10.6792 5.26626 3.11274 3.16877 -1.34058
1087 3 3.39431 12.6048 5.32462 0.417684 -1.73673 -1.96914
1982 3 1.61959 12.5947 7.04061 -1.37884 3.78412 -0.753283
1985 3 3.59406 10.7814 7.08689 -4.36446 -0.522292 -2.28653
1023 3 0.268893 8.90872 5.47543 -2.04137 -0.587715 -1.73279
1984 3 1.82933 10.8199 8.74685 -0.725586 -2.23441 1.00128
1031 3 7.26521 8.89259 5.40065 1.58225 -2.36677 0.804326
1926 3 5.39942 8.9962 7.12116 2.27937 -3.41756 -1.5703
1088 2 5.32366 10.7899 5.25308 1.40658 -2.74639 6.11938
1091 1 7.01128 12.6119 5.34004 -0.552829 2.00445 3.58216
1986 2 5.24204 12.6591 6.99606 -2.55709 -1.89996 0.0092433
1989 3 7.02253 10.8973 7.09315 -0.184833 -2.24886 3.0184
1092 3 8.76748 10.7702 5.33958 2.45038 -0.563253 -1.58277
1988 3 5.21739 10.7801 8.8552 -1.91761 -0.287262 0.638346
1992 3 8.87416 10.7633 8.89353 0.234121 4.18191 3.75733
1934 2 12.6029 8.96453 7.08214 -3.25813 2.95063 -1.78377
1990 3 8.99482 12.555 7.05537 1.14535 4.01396 -1.7606
1095 3 10.7666 12.5229 5.36242 -0.163965 -0.989768 0.629137
1096 1 12.5911 10.7686 5.3511 2.15049 0.859495 0.514108
1993 3 10.7015 10.6684 7.2132 -2.14236 -1.68595 1.96966
1994 2 12.8601 12.5531 7.19319 -3.43212 1.30323 -6.79334
1039 1 14.2819 8.94308 5.32516 -0.508854 2.60888 0.618103
1099 1 14.36 12.6016 5.31363 0.224693 1.0465 -4.93199
1100 1 16.0417 10.7317 5.45257 2.12049 -0.501053 -0.637471
1997 2 14.201 10.6495 7.21533 2.95676 2.40192 -4.6189
1998 2 15.9896 12.3999 7.23692 -0.115409 -4.0638 2.38272
2001 2 17.8174 10.6394 7.24349 3.31984 -2.36297 -4.96886
1103 1 17.7735 12.3977 5.49826 1.97453 1.50173 -1.85344
1999 1 14.4503 12.5794 8.85544 1.38441 -2.95626 -0.616449
1043 2 17.8851 8.99924 5.20722 -0.148205 -0.133146 -2.58941
1104 3 19.6723 10.7743 5.54021 2.23347 -4.38978 0.83382
1107 3 21.5116 12.6075 5.35636 -0.398709 3.54143 2.30551
2002 3 19.6924 12.4374 7.19344 -1.46987 -0.615709 -3.53982
2005 3 21.5345 10.6944 7.20079 -0.7243 1.9968 1.95058
2003 3 17.8326 12.5567 8.7931 -2.17509 -1.57057 -3.89967
1951 1 25.008 9.06279 8.75132 0.496391 3.3944 3.2037
1051 1 25.0469 9.06475 5.409 -0.84886 -2.01278 1.41581
1108 3 23.1717 10.6134 5.30833 -0.372093 2.08348 -3.42711
1111 1 24.9163 12.5507 5.27387 1.0379 0.70122 0.911695
2006 1 23.2546 12.5112 7.2282 -2.4335 -2.03896 -0.696912
2009 2 24.991 10.8328 7.06242 -2.1042 -2.94824 1.79362
1144 2 1.66435 14.4281 5.47119 -1.50579 -3.83939 2.63797
1147 1 3.44215 16.0533 5.26857 1.5416 4.37585 4.51938
2042 1 1.65912 16.2586 7.17354 -4.09641 4.06034 -2.79401
2045 2 3.32123 14.3608 7.225 -2.01579 3.42468 -3.62843
2047 2 3.30464 16.1782 8.88123 2.12844 -0.574412 0.202384
1148 1 5.17076 14.435 5.29015 -0.956916 -3.2111 1.71343
1151 2 7.12805 16.1935 5.27436 -5.17855 3.04617 -5.16754
2046 1 5.11497 16.0998 7.17875 2.00416 1.65562 -3.53412
2049 2 7.01846 14.1902 7.18759 1.86015 4.16099 3.2277
2051 2 7.13247 16.0148 8.70272 -5.57217 -3.21034 4.20807
1152 1 8.81358 14.3105 5.29092 0.421059 1.95576 0.934884
2050 1 8.91092 16.2387 7.13768 1.90475 -5.54157 0.0482434
1155 2 10.5605 16.0649 5.39634 0.174538 0.328652 -1.02175
1156 1 12.4351 14.4308 5.26786 -1.47318 -1.8712 -1.21802
2053 2 10.6904 14.289 7.0963 0.146035 3.3352 2.4906
2054 1 12.4853 15.9957 7.28801 0.190725 1.47132 0.0869795
1216 1 12.6368 17.6478 5.27579 1.3545 1.04675 2.53128
2055 2 10.7867 16.0055 8.88109 -1.25893 4.25224 -2.41713
1159 2 14.4185 16.1459 5.60888 1.95127 7.64668 2.86544
1160 2 16.3608 14.4108 5.3418 3.85622 0.763124 1.94531
2057 1 14.3546 14.4079 7.23975 -2.50702 0.673067 1.04666
2058 1 16.0786 16.3198 7.16479 -0.295127 -3.8471 -0.181882
2059 2 14.3414 16.0548 8.80986 -1.06697 1.1512 1.14519
2061 1 17.6927 14.3999 7.19331 0.705371 -3.64149 -1.75896
1163 1 18.0148 16.2813 5.32254 3.51853 1.28455 -2.71828
1164 2 19.5111 14.4393 5.71987 -1.43363 -0.891934 0.95636
1167 2 21.3655 16.2021 5.33734 3.30893 -1.17796 1.33507
2062 1 19.641 16.2235 7.22169 0.0224138 1.10839 -2.13082
2065 1 21.5987 14.473 7.074 0.631282 0.556787 -2.53273
2067 1 21.5437 16.064 8.75257 1.1313 -1.22666 2.50391
2063 1 17.8505 16.1561 8.76508 -1.47264 -1.38143 2.38706
1168 1 23.5119 14.4147 5.17674 0.42956 1.58034 0.944978
1171 3 25.2709 16.1424 5.19019 2.78945 7.94023 -0.249934
2066 2 23.2984 15.9286 6.82316 3.94331 1.65855 6.07856
2069 2 25.1294 14.3878 7.08747 3.08823 -1.8406 2.90831
2071 1 24.9888 16.0589 8.8254 -1.11451 -1.02015 -1.01337
2129 3 25.0835 17.8012 7.09979 0.897821 -2.95953 0.557517
1204 2 1.95324 17.846 5.30774 0.0149583 6.37973 -1.19678
2105 2 3.56134 17.9043 7.0462 -1.381 -0.374175 -1.26014
1207 1 3.49738 19.7898 5.31966 -0.366067 2.26137 2.80803
1264 2 1.68996 21.6339 5.26578 1.12676 -4.7426 -0.208982
2102 1 1.74403 19.784 7.06049 2.19541 3.38564 -0.54508
2165 3 3.43573 21.7295 6.99625 -1.61014 0.951578 -0.611648
2164 1 1.79597 21.6487 8.88606 4.25252 -1.30363 0.765472
2161 1 -0.0369997 21.4754 7.1207 -1.45162 0.176394 -0.163787
1203 3 0.0595162 19.6149 5.33968 2.99774 2.56069 -2.08815
2107 2 3.34856 19.7253 8.81094 3.37953 0.655271 1.50222
1208 1 5.2947 17.9967 5.17494 0.94393 2.81796 -1.41941
2109 2 7.16383 18.0353 6.95961 -2.44858 -1.71814 -2.26967
1211 2 6.95714 19.5708 5.31066 -2.0186 -4.20715 -0.732735
1268 3 5.21399 21.5334 5.17132 0.747808 -2.8555 -3.28325
2106 1 5.29602 19.6998 7.10295 -2.43888 -1.39351 0.638034
2169 3 7.17582 21.3108 7.08503 -1.23574 -0.977547 -1.96235
2108 1 5.37615 17.9164 8.81651 0.0168021 -4.79221 2.20028
2112 1 8.88107 17.8257 8.80245 1.92889 -0.358498 1.32853
1212 1 8.84424 17.9287 5.27196 -2.02561 3.73551 -2.0841
1272 1 8.91111 21.437 5.1511 -0.824549 2.10022 -3.50666
2110 1 8.97024 19.5994 6.97957 1.33464 -4.17979 -3.53501
2172 1 9.04504 21.3065 8.75837 -0.315133 1.01932 3.35112
2113 2 10.775 17.9178 7.1045 0.324153 -0.732523 2.63974
1215 2 10.8817 19.538 5.33684 1.21153 1.32775 -1.57551
1276 1 12.4276 21.5527 5.25718 1.69893 -4.98439 1.8727
2114 1 12.4997 19.7444 7.058 5.42423 0.128261 2.27709
2173 2 10.5258 21.3853 6.75258 2.30801 -1.09742 0.267261
2176 1 12.388 21.5421 8.78727 2.71732 0.341312 4.00853
2116 3 12.4678 18.0154 8.79172 1.18231 0.559291 1.54681
2115 1 10.6556 19.6765 8.7248 -4.35162 -1.07462 -2.66702
1220 1 16.0989 17.9696 5.39967 -0.150589 2.53867 -1.1533
2117 2 14.1642 17.9179 7.16383 1.22214 -2.10538 -0.705283
1219 2 14.2894 19.7145 5.18588 -0.109178 -1.38128 -2.04078
1280 1 16.1582 21.5343 5.21605 2.09124 -5.90846 0.388025
2118 1 15.9207 19.7494 7.16737 0.37225 3.05653 3.40672
2177 2 14.261 21.5781 6.88275 -0.649994 -0.689522 1.55979
1223 2 17.5529 19.7726 5.22535 2.80665 0.962305 -5.5673
2181 2 17.6604 21.5785 7.08791 0.272538 4.55973 0.381366
2123 1 17.8222 19.6832 8.88214 0.434335 -0.429589 4.66023
2180 1 16.1108 21.5809 8.87544 -2.18298 -1.98194 -4.70998
2125 1 21.4452 17.8599 6.94536 -0.339964 5.13638 -1.38462
1224 2 19.7644 18.1044 5.16532 1.62539 4.67634 -5.14997
2121 2 17.8834 18.0496 7.20943 2.51545 -1.07877 -1.76123
1227 2 21.4739 19.5358 5.36479 3.22573 -2.34509 1.09305
1284 1 19.5022 21.4518 5.39186 2.1463 -0.975398 1.16829
2122 1 19.6816 19.7873 7.05759 0.827427 1.08322 -1.13642
2185 1 21.346 21.5404 7.16131 0.997195 -0.0487831 -3.4981
2127 2 21.6601 19.7363 8.77316 -4.628 -1.63402 4.32417
2184 2 19.7216 21.3703 8.88333 -0.755279 2.84967 0.144187
1228 1 23.1937 18.0042 5.23667 -0.365948 -1.49161 -1.55884
2128 3 23.3394 17.9615 8.87111 -2.99713 -1.44912 -0.416681
1231 3 25.0918 19.6817 5.15092 -0.00939326 3.36804 1.55542
1288 3 23.2571 21.2929 5.22669 -2.07901 2.73101 -0.0303779
2126 3 23.4018 19.6704 7.08767 -0.436083 6.13762 -3.76451
2189 2 25.1448 21.5995 6.86024 0.478594 1.0925 2.61083
2131 3 25.0247 19.7268 8.85438 -0.641345 -0.986718 -1.98572
2188 1 23.308 21.4542 8.58905 1.91962 -0.240734 -0.585658
1263 1 0.0271533 23.2785 5.43489 -3.15041 3.07435 -2.83533
1267 2 3.45189 23.3039 5.21975 -0.5173 1.92833 1.29666
1324 2 1.68 25.1335 5.21227 4.90149 0.314427 4.18297
2162 1 1.67449 23.4621 7.01802 -2.47244 1.29146 1.64664
2225 3 3.49529 25.1181 7.23387 -2.46282 0.197598 -3.23579
2224 3 1.73465 25.0909 8.74478 -1.52848 -1.02396 -1.93415
2163 2 -0.045004 23.3571 8.73104 2.45096 -5.74915 -0.102677
1271 3 7.13288 23.2058 5.28269 0.59287 4.07209 0.355837
1328 3 5.22835 24.9873 5.41621 -0.594815 1.52841 1.80941
2166 3 5.35561 23.2522 7.04285 -2.43885 -0.378697 0.761839
2229 3 7.13709 25.169 7.15722 1.70912 0.42113 -0.598724
2170 3 8.85664 23.1699 7.04727 2.23493 -1.97586 -3.05249
1331 3 7.20637 26.7476 5.30187 0.742551 4.02947 -1.44482
2228 3 5.30465 24.8585 8.71846 -1.02947 -3.7515 -0.49188
1335 3 10.6427 26.7014 5.36509 0.647004 -1.46068 -1.92613
1332 3 8.96484 25.0396 5.35586 0.964746 -1.83081 2.37362
1275 2 10.5365 23.2229 5.26177 -1.87014 -3.88236 -2.18662
1336 1 12.4686 25.0171 5.19088 0.333816 -0.990163 -2.93277
2174 1 12.3462 23.2839 7.05041 -0.620056 -0.178467 -0.965724