ITEM: TIMESTEP
143400
ITEM: NUMBER OF ATOMS
13500
ITEM: BOX BOUNDS pp pp pp
-5.4243816914876675e-02 5.3574243816894565e+01
-5.4243816914876675e-02 5.3574243816894565e+01
-5.4243816914876675e-02 5.3574243816894565e+01
ITEM: ATOMS id type x y z vx vy vz
7 3 3.70729 1.98709 1.76897 -5.16919 1.40113 3.59152
64 3 1.83874 3.83211 1.84873 0.905556 0.621692 -1.43028
902 2 1.9509 1.88429 3.50179 -1.95896 1.3507 -3.53418
965 3 3.63208 3.85175 3.4639 0.098581 2.48483 5.28692
4 3 1.68678 0.23438 1.76201 0.949983 3.28271 0.00557485
905 3 3.7875 0.120502 3.45461 -2.97184 3.64314 -1.07059
961 3 0.163408 3.78471 3.60632 1.48243 0.948242 0.902087
2 3 1.82475 2.04587 0.00861981 -1.08177 2.20105 -3.27006
1 3 0.071157 0.290564 0.0627558 -2.79303 -1.95801 -5.14647
901 1 -0.0373277 0.0789373 3.73605 -0.0255409 0.0456236 -1.08682
61 3 0.00757633 3.66579 0.21352 0.293324 0.817169 -1.78937
65 2 3.67047 3.86529 0.0564883 2.73491 -1.19898 0.908249
3 3 -0.0310982 2.09474 1.9098 3.9784 -1.35488 0.204888
11 1 7.13743 1.96902 1.64958 -2.07104 -0.763363 2.35533
68 1 5.45131 3.76856 1.84446 -2.7465 2.05701 1.15284
906 2 5.55747 1.89413 3.56207 -1.70815 -0.0220365 -1.46539
969 2 7.12782 3.76834 3.69547 -0.307293 -2.85994 -7.73982
909 1 7.15352 0.0855342 3.51944 3.35476 1.37649 1.59744
8 2 5.40833 0.136531 1.58868 -3.39337 1.84014 -0.596558
69 2 7.23099 3.72902 0.0442133 -4.47667 1.5756 -3.0935
6 1 5.43034 1.93261 -0.0185394 -0.266734 -0.106457 -2.35028
9 2 7.03945 0.105127 0.00988019 -0.253282 0.716894 3.43161
910 1 8.91931 1.98078 3.49201 -0.193701 -2.985 0.379086
12 2 8.96819 0.199419 2.04601 1.19065 0.945011 -2.9509
72 2 8.97231 3.84459 1.78076 1.67122 4.15918 2.96575
15 2 10.7296 2.01831 1.5676 -2.28145 -1.67269 3.34172
76 2 12.3713 3.77611 1.38458 -4.05093 1.92038 0.0207109
914 1 12.5412 1.96661 3.41683 -1.57638 0.595245 0.509813
973 1 10.694 3.67028 3.40102 -1.50641 -3.64954 -1.60605
16 1 12.5661 0.233022 1.69361 -1.07963 -0.756073 -3.95821
913 1 10.7257 0.246136 3.4569 0.606988 -0.842901 3.15973
13 1 10.6506 0.269226 0.0626411 -1.17876 0.186989 1.28504
19 1 14.2863 1.91052 1.67535 1.79321 0.328437 -5.85865
80 1 16.1659 3.75071 1.57493 2.74263 -0.519829 -0.234629
918 2 16.259 1.74195 3.25221 -1.60268 5.53667 -4.89431
977 2 14.344 3.72165 3.45746 0.994222 0.0884507 1.76501
917 2 14.2178 0.22146 3.38848 1.00205 -3.32971 1.68816
20 1 16.015 0.097577 1.61857 3.12407 -0.0876394 -0.0130775
981 1 17.8793 3.72354 3.2699 2.30331 1.87709 -3.17474
23 2 18.0089 1.8981 1.57552 -1.67065 -0.899732 1.27298
921 1 17.9416 0.0498286 3.33872 -3.94879 -2.66347 -1.33226
27 3 21.3934 2.06433 1.70234 -2.94509 1.47002 2.45257
84 1 19.6029 3.83093 1.60016 1.80934 1.9673 0.241761
922 2 19.6041 1.88576 3.38092 -0.459989 1.93534 1.03727
985 3 21.4736 3.88099 3.5357 -3.62003 3.43195 -5.5782
925 3 21.4481 0.246814 3.43668 4.22914 -3.35465 7.15039
24 1 19.5698 0.0274459 1.66811 0.867988 -0.717728 -1.06787
31 3 25.1247 1.88903 1.66539 -1.54665 -1.07897 -0.19239
88 3 23.1374 3.72609 1.70699 0.591865 1.88772 -4.00615
926 3 23.2494 1.95288 3.45196 4.02627 4.73987 -0.722515
989 3 24.9547 3.64232 3.33419 -3.1847 0.8078 -0.44603
28 3 23.0844 0.282743 1.67768 2.33442 2.73363 2.91701
929 2 24.9781 0.0795006 3.67277 3.03243 -1.11944 -2.53608
930 2 26.7368 1.90283 3.50351 1.52457 1.33239 -1.38359
89 3 24.9388 3.68044 0.131064 -1.83881 -2.18228 3.13887
67 1 3.66925 5.5975 1.73713 -2.19546 2.87405 4.62598
124 3 1.69174 7.33141 1.55254 0.252859 -1.15249 2.20356
962 3 1.89675 5.67634 3.45102 0.983881 1.77596 -3.64856
1025 2 3.53697 7.5165 3.41049 -3.20301 3.15725 2.85541
63 3 -0.0095615 5.46338 1.71979 -1.9926 0.652682 -3.47167
1021 2 -0.0305659 7.40787 3.28891 -1.49156 0.83984 -1.37418
62 3 1.91096 5.50357 -0.0397952 -0.866961 -4.29819 0.641409
71 1 7.2172 5.72413 1.67163 -1.31568 1.36899 1.8244
128 3 5.41274 7.43915 1.76131 -3.76831 2.3076 2.97932
966 3 5.40106 5.54258 3.5184 2.65932 3.04569 -2.7344
1029 3 7.09533 7.40552 3.49683 1.84559 0.0340252 0.843952
66 2 5.54325 5.51094 -0.00600335 1.72586 -0.862351 2.69901
132 2 8.87823 7.67544 1.7687 -0.931092 0.639018 1.33167
970 3 8.88096 5.61279 3.57545 -2.41783 0.82393 1.56254
75 2 10.6562 5.56332 1.6086 -1.71404 4.0972 -3.48423
136 3 12.3918 7.4179 1.57027 1.13289 -2.08426 3.24228
974 1 12.4149 5.63837 3.19729 -1.52908 -0.208902 -2.71788
1033 1 10.6427 7.44648 3.26916 2.54621 -4.46747 -2.96316
79 1 14.3481 5.49024 1.55363 -2.51086 0.0226228 2.24102
140 1 15.9232 7.31509 1.57251 -2.29205 -1.51974 -3.45013
978 2 16.2333 5.68543 3.36881 -0.605974 -1.0583 -2.39362
1037 2 14.3184 7.22517 3.39037 0.00915462 -3.70541 -0.823044
83 2 17.839 5.69599 1.51362 2.67368 2.31864 1.77058
1041 1 17.8512 7.42752 3.37255 -2.6008 2.25925 0.539609
87 3 21.4856 5.66157 1.67116 -3.78211 3.74468 -0.0580548
144 1 19.6956 7.41735 1.68627 -0.0910077 -0.944966 3.77084
982 2 19.5648 5.49875 3.36695 2.92069 -3.60941 0.606107
1045 3 21.3954 7.42991 3.39421 -3.23459 1.06574 5.08769
82 3 19.8314 5.52101 -0.0507467 -1.85283 -3.0013 -0.333166
91 3 25.1135 5.48164 1.8401 -1.05466 1.52045 0.159015
148 3 23.2461 7.38503 1.66705 5.13239 -1.01427 1.64722
986 3 23.1902 5.51171 3.5011 3.91921 1.95735 -3.84091
1049 3 25.1516 7.28849 3.59453 -4.26077 -0.338844 0.374624
86 3 23.3979 5.57932 0.055922 0.567072 2.35043 -4.33117
152 3 26.7553 7.35102 1.66407 -1.14037 -2.46513 -0.802067
1022 3 1.80063 9.08081 3.41432 1.89851 2.32999 -1.80098
127 1 3.56707 9.21849 1.5962 -1.30718 -0.622295 -3.40447
184 2 1.97904 10.8021 1.83894 -5.31865 -1.08842 3.69299
187 2 3.63589 12.5932 1.55128 -1.11051 1.48859 -3.60437
1082 1 1.78967 12.7093 3.4994 -0.348658 0.586071 -3.78923
1085 1 3.75766 10.9522 3.51193 3.15887 -0.139626 -7.93024
1081 1 0.107736 10.9423 3.39385 0.833279 0.959079 -1.91149
123 1 0.160876 9.09035 1.7254 2.99288 -4.36813 0.909689
183 1 0.0283128 12.7616 1.64484 0.269552 3.4166 0.315405
181 2 0.030272 10.8211 0.143767 -1.00042 -0.345521 -2.47659
131 3 7.07762 9.23105 1.74232 -1.22347 -0.5116 3.81915
1026 1 5.28331 9.17407 3.47425 -2.59436 2.9222 -2.96429
188 2 5.33264 10.982 1.71457 2.4952 -0.0605034 2.55143
191 1 7.08683 12.819 1.65539 -1.00212 -0.544491 -1.65774
1086 2 5.50313 12.7443 3.75318 2.84367 2.19797 0.830336
1089 1 7.16987 11.0185 3.50367 0.968907 2.45534 -2.4515
192 2 8.88181 11.2808 1.69294 -0.338365 -2.45117 -0.12509
1090 2 8.82834 12.6861 3.68782 1.5654 -1.50478 1.24639
1030 3 8.84991 9.24316 3.57127 -1.87626 -1.24539 0.784494
135 1 10.5881 9.48036 1.56838 -2.51152 -0.125418 4.33276
1034 2 12.4415 9.09212 3.37766 2.22967 0.29835 -3.9892
195 1 10.6974 12.7483 1.71705 0.454512 1.87227 -0.667972
196 1 12.5138 10.942 1.58679 -0.426246 1.6173 4.71922
1093 2 10.7282 11.0127 3.43583 0.119233 -0.857825 0.546652
1094 2 12.4045 12.7835 3.46909 -0.366887 2.95469 0.362982
1038 2 15.8598 9.16672 3.28284 1.60818 -2.4552 5.45643
139 1 14.2015 9.09588 1.46674 0.201933 2.29419 1.36905
199 3 14.2715 12.6633 1.61118 -3.03982 0.983503 1.7191
200 1 15.9059 10.7934 1.63447 -1.43201 0.112197 1.21291
1097 2 14.2345 10.8758 3.45805 -1.71946 3.32672 -4.28649
1098 2 16.0542 12.6048 3.47124 5.04713 2.29037 -1.09191
1101 1 17.68 10.8778 3.38156 -0.36206 1.43851 -1.52072
143 2 17.787 9.12887 1.6411 -0.206147 -1.2189 0.238622
203 1 17.8595 12.5613 1.70689 -2.42674 -0.970966 3.43045
1042 1 19.5808 9.26897 3.43009 1.90521 -1.39855 -7.84997
147 2 21.4347 9.21802 1.63505 -1.50972 -0.714552 2.17703
204 2 19.6579 10.854 1.61602 0.621199 2.2683 2.8714
207 1 21.3826 12.7361 1.55354 -0.572986 -3.46924 -3.01605
1102 2 19.5662 12.4107 3.4448 0.126869 2.77912 0.889076
1105 1 21.3413 10.8797 3.42769 -1.96196 -1.25677 0.973977
1110 1 26.5621 12.8896 3.65509 -0.909622 5.00122 8.8239
1046 1 23.2935 9.20387 3.54414 -0.0197853 -0.850731 2.87368
151 3 25.0218 9.12469 1.68905 1.05225 1.6398 0.049709
208 1 23.1582 10.9129 1.66018 2.77798 -3.072 -3.79818
211 1 24.7929 12.6365 1.66386 -2.29764 -1.68594 -0.498757
1106 2 23.2532 12.7264 3.34528 -0.049303 0.880283 -0.74922
1109 2 24.9971 10.9927 3.49735 -0.27168 2.67841 0.461031
212 1 26.747 11.005 1.58675 3.54821 -4.39105 3.80795
1050 2 26.7489 9.19816 3.22141 1.20768 -5.57351 2.14996
206 2 23.1855 12.7126 -0.046732 0.546197 -1.11103 -1.29076
209 2 24.9394 10.9838 0.0524691 -0.536759 0.765363 0.948164
244 2 1.68223 14.4318 1.67079 2.01393 -0.138347 4.12035
247 2 3.65659 16.3865 1.81147 4.91794 2.3262 -1.03746
1142 1 1.69745 16.2044 3.39149 -3.35418 -4.59484 0.263871
1145 1 3.50597 14.5746 3.50519 2.16308 1.18265 -3.1036
1141 2 -0.0260715 14.6709 3.41591 0.23523 3.3842 -0.437559
242 3 1.77598 16.3088 0.0945216 1.27015 1.94525 -2.14721
245 1 3.48372 14.584 -0.0232551 -4.25329 -2.49757 4.82204
248 1 5.19961 14.4623 1.63642 -1.75506 1.65788 1.39049
251 1 7.08175 16.0843 1.57602 1.18163 -2.39148 -1.00421
1146 2 5.4122 16.2885 3.45987 -2.83418 1.82255 1.54294
1149 2 7.15064 14.5855 3.56394 -2.94431 -0.498907 1.66428
250 1 8.80874 16.4122 -0.0548375 3.23442 -0.573197 -0.338685
1150 2 8.95093 16.3397 3.4566 2.08437 0.611181 2.55748
252 2 8.96089 14.3955 1.68566 -1.45155 -1.48406 -4.17945
255 1 10.692 16.2594 1.68001 -2.21109 0.843936 2.41379
256 3 12.4207 14.6516 1.52057 -1.07995 -2.74936 2.97376
1153 1 10.749 14.5802 3.4175 -1.81322 2.0856 0.747581
1154 2 12.4782 16.3894 3.54017 5.47843 -4.05117 1.68719
259 3 14.2777 16.3344 1.78604 -2.3917 1.07301 0.616664
260 3 16.0456 14.4963 1.72985 0.16777 -1.06787 -2.82199
1157 1 14.1592 14.4926 3.48668 0.206111 -0.162743 0.725208
1158 2 16.011 16.2338 3.56544 1.38635 1.73809 -2.54489
261 2 17.7083 14.2808 0.00943892 -1.37423 -2.0619 0.708603
258 3 16.1792 16.1991 -0.0183008 3.23009 0.0954653 1.834
1161 3 17.9621 14.2584 3.38716 4.2992 -1.1215 -3.443
263 3 17.882 16.2817 1.70848 0.174623 -1.36444 -2.16318
264 2 19.7258 14.4325 1.64417 -3.18321 -0.556471 -2.6258
267 1 21.3962 16.277 1.58381 0.261339 3.27553 0.185284
1162 1 19.7766 16.2275 3.36826 -2.93145 2.04651 4.25913
1165 1 21.3178 14.486 3.52038 1.74445 -1.44454 1.24762
268 2 23.2468 14.5643 1.59743 -0.880296 -0.9181 3.06511
271 3 25.0043 16.304 1.64437 2.64653 -3.23874 0.416661
1166 2 23.1793 16.2581 3.46012 -3.42504 -3.03165 3.30751
1169 1 24.8126 14.5798 3.53763 0.942937 -0.227644 5.51278
272 2 26.5995 14.3406 1.79895 7.09029 -3.00814 -3.39481
1170 3 26.634 16.2601 3.50019 -1.9435 2.72611 1.734
1261 1 0.1176 21.6665 3.51589 0.157218 0.55972 -0.0302215
304 3 1.83291 18.0215 1.73404 -0.141632 2.28792 0.189012
1205 1 3.48714 18.0057 3.48058 2.04713 -2.23579 -0.958005
307 1 3.66838 19.8291 1.65675 0.940744 0.316317 -1.64298
364 3 1.86347 21.6261 1.75399 -1.19118 -0.0799235 -3.37467
1202 2 1.7252 19.8631 3.3848 0.327472 -0.251045 0.468787
1265 1 3.62075 21.5403 3.43929 1.96723 -1.50466 0.279613
1201 3 -0.00185002 18.1337 3.54976 -4.01385 3.43768 -2.31872
302 3 1.814 19.7673 0.0246212 0.0372951 -0.477027 -0.43617
301 3 0.116785 18.1615 -0.0156599 -4.79786 -2.60282 0.330251
1209 1 7.12376 18.1732 3.42418 1.96005 1.18365 -0.684836
308 1 5.28669 18.1064 1.52652 -4.07618 -1.30757 4.74284
311 1 7.04254 19.8476 1.53687 2.86602 2.58835 0.631752
368 2 5.34717 21.5315 1.60466 -0.782756 0.541305 -0.891499
1206 2 5.34165 19.8647 3.50737 -4.92229 0.654333 4.07512
1269 1 7.21151 21.495 3.35114 1.55831 1.66738 -0.708469
312 2 8.82306 18.1951 1.81257 -4.28778 -4.22652 3.21679
1210 2 9.03942 19.8934 3.3513 2.51171 -2.00508 1.93322
1213 1 10.8964 18.0435 3.56937 -3.03387 2.70188 -2.95145
372 2 9.05484 21.4977 1.60769 -0.48896 0.900206 -3.06346
316 2 12.29 18.0466 1.67649 3.08926 3.65764 -7.41805
315 1 10.7887 19.8639 1.55015 -3.55358 -0.940486 2.29074
376 2 12.729 21.4889 1.66027 -3.36467 -3.5051 0.198658
1214 2 12.3413 19.7769 3.55636 -0.758657 2.56562 -4.58094
1273 1 10.7735 21.6259 3.54126 0.203123 -3.0917 -1.14441
1217 1 14.2353 18.214 3.57321 0.40175 0.704821 3.276
320 2 15.9673 18.005 1.73968 -5.58779 2.40064 1.71229
319 1 14.1863 19.857 1.66469 2.19981 2.58739 -1.97647
380 3 16.0269 21.6616 1.81231 -2.19849 -1.76736 2.40589
1218 2 16.1353 19.7877 3.52846 -2.38463 -0.501584 2.19372
1277 1 14.2608 21.5364 3.63674 1.62191 0.400123 6.04141
317 3 14.3985 18.0987 -0.0401291 -2.16574 4.12979 -2.15572
318 3 16.1304 19.9189 -0.00905302 0.774985 -1.80835 4.11818
1281 1 17.8788 21.7601 3.5356 0.46922 0.510732 -1.63969
1221 3 17.8629 18.0509 3.39102 0.451817 0.06342 0.2838
323 3 17.889 19.9394 1.56077 -0.592376 -2.66341 -3.38329
324 2 19.778 17.9913 1.63097 -4.06432 -1.2072 -1.36344
1225 3 21.5288 17.9651 3.49329 -4.21425 2.23899 2.994
327 3 21.3446 19.8126 1.4712 2.77122 4.03529 -0.374995
384 3 19.7259 21.6587 1.75369 -3.27837 0.135407 3.74554
1222 3 19.5532 19.809 3.4081 2.23593 5.05418 1.79528
1285 3 21.5198 21.5691 3.36936 2.58963 -0.470142 1.44927
328 3 23.1136 18.1219 1.56478 -3.03949 -0.76828 2.43015
1229 3 24.9157 18.0179 3.56557 0.40607 -7.74585 -1.18914
331 3 25.0299 19.7158 1.77035 -0.152841 2.3784 -2.46411
388 3 23.3003 21.5302 1.75256 3.94947 3.83505 0.208709
1226 3 23.1316 19.7789 3.40407 -1.08596 1.64535 -0.112934
1289 3 24.9702 21.5478 3.59326 1.65035 0.369212 -0.810082
1230 3 26.6772 19.8778 3.44003 -0.588113 0.794107 -1.78087
330 3 26.6714 19.8721 -0.0275081 0.53392 -0.281877 1.38124
332 3 26.7446 18.0519 1.71418 -3.66899 0.631611 0.319847
367 3 3.58035 23.3893 1.86828 0.391517 1.72938 -0.532044
424 3 1.85711 25.1503 1.79714 -3.0313 -1.2406 -4.1503
1262 2 1.67266 23.299 3.47578 -1.04403 -0.732174 0.67136
1325 3 3.46681 25.302 3.59659 0.273097 1.02825 1.64313
1321 1 -0.0404089 25.0907 3.48917 2.6043 -3.07173 1.00451
371 1 7.23093 23.3919 1.72668 -3.43374 -1.02664 4.87911
428 2 5.32864 25.1986 1.70756 -1.12704 -4.86923 -1.96303
1266 3 5.37919 23.3481 3.3699 -0.405237 -5.72987 1.85167
1329 1 7.02974 25.1605 3.55609 -0.720707 -2.45094 1.4599
429 2 7.1797 25.1505 0.0227301 2.27259 3.09414 1.10182
1270 2 8.93553 23.635 3.74396 0.803119 -0.39722 -4.47449
432 2 9.06944 25.2095 1.75283 -1.77585 1.68963 -3.42073
375 1 10.6884 23.2162 1.84317 -3.07828 0.0820832 -3.13543
436 2 12.3469 25.1699 1.63134 2.51904 0.519247 -3.84668
1274 2 12.6285 23.2769 3.43948 0.84816 1.79346 -3.65104
1333 1 10.6945 25.2409 3.48092 -3.67804 1.80763 -5.79419
433 2 10.6176 25.1168 0.000837873 0.279777 -1.92457 2.61208
379 1 14.3275 23.3375 1.7265 3.80154 -2.10928 -3.59049
440 2 16.0601 25.1092 1.67776 -2.05178 1.24617 1.00916
1278 2 15.9823 23.5116 3.51214 -1.54164 -0.0881736 1.63584
1337 1 14.1457 25.3188 3.43679 1.59225 -3.20174 -1.43875
383 1 17.7282 23.4469 1.79174 -3.79447 -3.49538 -2.55541
437 1 14.3441 24.999 0.0182328 1.48257 3.67309 4.86582
1341 1 17.812 25.217 3.43385 -6.26313 -0.0828152 1.41787
387 3 21.4945 23.2801 1.76115 -0.260949 1.74573 1.4202
444 1 19.6182 25.0808 1.56955 -2.7494 -3.31229 0.0575719
1282 2 19.8311 23.3505 3.51267 -1.61236 -2.55987 -2.59708
1345 3 21.434 25.1339 3.46322 3.02589 5.52011 -5.4671
382 2 19.6767 23.2975 0.136027 0.49961 -2.43848 1.39644
452 2 26.6687 25.1145 1.58689 1.13059 0.461658 0.826428
391 3 24.9785 23.4275 1.63282 -0.579746 0.784794 2.79507
448 2 23.2846 25.345 1.80503 1.1961 -2.69976 -1.68272
1286 2 23.1857 23.3015 3.41294 -4.61437 -1.11512 -2.95865
1349 1 24.9823 25.176 3.4898 -1.13897 0.542321 -1.22705
1290 2 26.6192 23.4861 3.48996 -1.10962 -3.01873 -0.837976
386 3 23.1383 23.4029 0.00054037 5.52181 -2.11016 0.709571
449 2 24.892 25.1938 -0.0482231 2.61126 -7.84821 1.15334
1801 2 0.176955 0.30368 6.96202 3.47741 2.4766 -5.98991
1805 1 3.61255 0.343861 7.00968 -5.7815 1.51336 2.40219
903 1 0.136005 1.9497 5.29445 -4.3934 -0.746862 -2.93204
1861 3 0.054175 3.66342 7.13079 -2.88511 -0.744907 1.69798
904 1 1.91833 -0.0209859 5.17279 4.46698 2.10047 -2.4764
907 3 3.69719 1.96299 5.20298 1.24421 0.162257 -2.64194
964 3 1.82156 3.80533 5.2557 -0.62687 1.54092 -1.80667
1802 2 1.95666 1.78091 6.91359 -1.91694 3.66659 -1.14938
1865 3 3.50299 3.70001 6.96754 -0.674951 1.16741 0.643043
1864 3 1.94228 3.61904 8.85149 1.91962 2.78901 3.32956
1807 3 3.76616 1.98444 8.8422 1.95987 0.386711 -0.433218
1803 1 0.216969 1.83252 8.84507 1.04991 2.8146 -0.142711
908 2 5.51373 0.242974 5.37805 -1.89872 2.76979 0.904895
1809 2 7.18326 0.106689 7.10056 5.64943 1.74775 -0.719731
911 1 7.31564 1.85139 5.44089 5.93175 -5.93436 0.646361
968 3 5.42241 3.56718 5.38906 -3.87904 3.53332 -1.92968
1806 1 5.44549 1.96542 7.09661 1.84932 -1.20242 2.0413
1869 2 7.318 3.91304 7.13308 -1.90077 2.46592 -2.787
1868 3 5.43025 3.69673 8.76896 -5.06884 -1.41799 1.4994
1811 1 7.27625 2.06963 8.82636 -2.01825 1.50527 -4.68305
1808 2 5.41574 0.162381 8.84201 -0.634408 -0.243711 -5.36092
912 2 9.00382 0.174651 5.04929 3.98125 -0.447687 -3.34554
1810 1 9.07534 2.14621 7.1699 0.619587 -0.681782 -3.48614
972 2 9.12689 3.84305 5.23649 -4.31756 3.69305 3.4667
1812 2 8.92776 0.261092 8.79248 -1.00638 -0.311697 -0.858197
915 2 10.6593 2.06623 5.26937 2.79126 -1.37401 -3.19221
976 2 12.5757 3.63163 5.19951 -0.690157 0.0246949 -0.721767
1814 1 12.6371 2.08322 7.06334 -3.22608 3.3652 0.414439
1873 1 10.8088 3.78224 7.05872 -0.0734614 -4.2251 2.90075
916 2 12.3799 0.245017 5.14634 1.87119 2.33034 0.278758
1813 1 10.6474 0.270506 6.95252 -2.72566 -5.34753 2.8951
1816 2 12.5524 0.338323 8.74281 3.01738 -2.10023 3.75488
1815 2 10.6579 1.93844 8.79093 1.91533 -6.23858 1.93252
1872 2 9.02769 3.82513 8.83696 -1.27116 -0.0174446 3.75696
1876 2 12.5703 3.85748 8.85386 1.57206 0.363956 -2.96761
1817 2 14.196 0.166018 6.7839 2.24377 -0.294965 -1.69947
919 1 14.3437 1.9879 5.24063 -0.36592 2.03162 3.11431
980 1 16.1576 3.75296 5.14209 -1.48867 -0.642141 1.78691
1818 2 16.0468 1.85793 7.02548 -0.369923 -5.91349 6.70809
1877 2 14.3341 3.82904 6.84404 3.403 -3.42599 1.0374
920 1 16.3048 0.128969 5.19224 -1.66783 -1.76715 2.21467
1880 3 16.0945 3.81997 8.875 -3.79492 0.206923 -0.081044
1819 1 14.2973 1.95946 8.77561 -4.84712 3.26512 -0.160091
1823 3 17.811 1.87477 8.7999 0.0811706 -0.767212 3.56047
1881 2 17.6282 3.82267 6.99246 -1.40969 2.30882 -0.315118
1820 3 16.0319 0.125124 8.74915 1.19041 7.74173 -0.884094
1821 3 17.8912 0.160845 6.94671 -1.04779 -0.235986 1.49407
923 3 17.8911 2.05314 5.15202 0.157699 -4.45184 2.40786
1825 2 21.3499 0.147462 7.00061 -0.735484 -2.45716 2.33765
927 3 21.3448 2.00529 5.29305 -0.296487 -0.0663383 -0.135154
984 3 19.661 3.72799 5.21088 0.356515 1.03239 -1.61054
1822 3 19.6107 2.19847 7.04093 1.24727 -0.847097 -1.04082
1885 2 21.5037 3.85515 7.1087 2.41685 -1.30801 -1.27318
924 3 19.65 0.262759 5.14774 -2.94911 -0.861193 -2.29358
1884 1 19.5977 3.89636 8.76061 -0.530759 -2.06609 2.46616
1827 3 21.459 2.01067 8.70022 2.64851 0.438946 1.14683
1824 3 19.5918 0.169673 8.8868 0.757376 4.61656 2.53373
928 2 23.1889 0.153995 5.44737 -1.28578 -0.429548 -1.63591
1829 2 24.9612 0.197481 7.06195 -0.64033 -2.75258 2.16715
931 1 24.9354 1.88778 5.31317 0.50769 -1.73789 2.81252
988 2 23.0438 3.67576 5.41014 -3.56586 -2.57656 0.748824
1826 1 23.189 1.93842 7.12198 -0.713998 -3.06919 2.41358
1889 1 24.8949 3.86895 7.10293 -1.97471 -3.63484 1.13052
1888 2 23.2556 3.87509 8.77698 0.59097 2.36211 0.579465
1830 2 26.7208 2.00663 7.02734 3.22765 -0.290628 1.53174
992 1 26.6563 3.5323 5.19592 1.94837 0.268753 1.99696
963 3 0.0828951 5.60185 5.28786 2.45867 2.0352 2.90015
1921 3 0.178731 7.45006 6.9924 -1.42534 -6.64695 3.33439
967 3 3.70067 5.62303 5.29078 0.302847 -2.34184 1.49814
1024 3 1.95833 7.37227 5.2438 0.324768 4.80494 0.237849
1862 3 1.90161 5.64582 7.09738 -0.715331 1.72634 -4.09494
1925 3 3.6233 7.3232 7.17216 -5.09255 1.27329 0.707209
1863 3 0.10283 5.50835 8.84397 -5.34528 0.338112 -0.11423
971 3 7.03321 5.51061 5.28622 1.22791 3.84746 -1.48431
1028 3 5.31787 7.30902 5.26644 0.305428 -0.0142938 4.52069
1866 3 5.38623 5.55909 7.21069 -0.0391754 1.21363 5.52888
1929 3 7.1042 7.31176 7.15334 -1.81786 -3.58134 0.453256
1928 3 5.50177 7.27194 8.84417 0.250913 5.03397 2.44899
1871 3 7.13537 5.55231 8.81287 0.878514 1.83971 -0.322775
1032 3 8.83237 7.34168 5.26496 -2.10234 -1.9428 -0.304445
1870 3 8.92643 5.72391 7.07776 0.935834 5.10257 -1.94621
975 2 10.7295 5.53749 5.1634 1.07657 2.86166 0.627309
1036 3 12.4979 7.28121 5.12931 -1.13742 -0.488497 -1.11451
1874 3 12.3153 5.48912 7.00351 3.31767 -2.28761 2.01558
1933 3 10.6723 7.41849 6.97002 1.89115 -6.15089 1.85242
1875 2 10.8416 5.54217 8.87358 -4.99051 -2.00057 2.55172
1936 1 12.5413 7.31702 8.80547 -1.35952 -2.51965 -1.07333
979 1 14.2096 5.61293 5.24188 2.18111 1.87138 -0.0135225
1040 1 16.0456 7.33269 5.14893 -0.200635 -0.810497 -1.63064
1878 2 16.0518 5.73443 7.1125 -2.92634 -2.02806 2.00389
1937 2 14.3115 7.3348 6.93467 -0.0672436 -3.50879 -1.58308
1879 1 14.2679 5.48652 8.84125 -2.54851 -0.522185 1.46262
983 1 17.7655 5.64763 5.14833 2.31486 6.10938 0.56223
1940 2 16.1025 7.31182 8.86513 -1.54442 0.93719 -1.95174
1883 1 17.817 5.59475 8.76737 -3.61478 0.634316 0.60317
1941 1 17.9632 7.32754 6.90189 -1.07662 3.52799 -2.87535
987 1 21.4075 5.59248 5.21662 2.50521 -0.994692 2.21602
1044 2 19.7237 7.28352 5.31639 -3.49205 3.42614 -2.66037
1882 2 19.5589 5.53509 7.03704 -2.40478 -1.61425 4.08836
1945 1 21.4488 7.16278 7.04759 4.85052 0.305337 -1.35452
1944 2 19.7108 7.21929 8.81246 -4.35126 4.53216 -1.68073
1887 1 21.398 5.58026 8.83719 -3.79062 5.30567 -4.03561
991 3 25.056 5.53449 5.23121 -3.35964 0.809127 -3.127
1048 2 23.1013 7.38029 5.39925 -0.986355 2.3093 1.69785
1886 1 23.2764 5.60831 7.04155 -1.58699 1.53554 -2.96162
1949 2 24.9853 7.36988 7.03033 2.32224 2.11868 1.34603
1891 1 25.098 5.53459 8.81487 -4.14797 -1.21977 0.959527
1922 3 1.8617 9.16108 7.09606 1.6458 -5.51476 -2.18447
1027 3 3.65283 9.1117 5.27599 1.95072 -1.00321 -7.2328
1084 2 2.01488 10.8838 5.19291 -2.47399 -1.22876 0.862102
1087 1 3.60614 12.7219 5.34317 -2.76026 -1.186 1.07834
1982 1 1.83715 12.7337 6.99139 -1.81211 -2.50601 -3.85832
1985 1 3.65358 10.8679 7.1026 2.4737 1.34921 2.06458
1083 2 -0.036852 12.7757 5.15333 2.2018 0.941966 -0.881333
1981 3 0.194372 10.9454 7.0972 0.590664 -5.67842 -5.36651
1023 3 0.150522 9.20588 5.21349 -1.65677 -4.31432 -0.573648
1984 1 1.7346 10.8657 8.89169 0.692295 0.983194 5.45516
1983 2 0.072178 12.6416 8.82221 1.8704 -4.68935 -1.37634
1926 3 5.34569 9.06576 7.07613 2.19113 3.94186 2.74462
1031 3 7.09871 9.04133 5.34672 0.342923 -1.93113 -3.63788
1088 2 5.45488 10.964 5.32582 -0.917951 1.0418 2.35139
1091 1 7.13396 12.7346 5.39098 -1.6384 -4.23486 0.552877
1986 1 5.31908 12.9129 6.94289 3.4427 5.37634 -2.17631
1989 3 6.94766 10.9213 7.13412 1.11511 -1.95474 -2.15866
1991 3 7.26893 12.7466 8.69343 -0.415966 -2.06801 -0.455224
1092 3 8.83021 10.9232 5.27701 2.06681 2.3092 1.97931
1988 2 5.46885 10.8508 8.85812 0.141303 -1.18446 -1.29376
1990 2 8.98312 12.8138 6.99583 -6.28632 -0.00961275 0.0190364
1930 3 8.91182 9.24252 7.14109 -2.07035 -3.60451 -0.609645
1934 2 12.348 9.05294 7.04053 2.03053 -3.35393 -1.49068
1035 3 10.6359 9.04502 5.23839 1.53897 -2.24514 0.0468915
1095 1 10.742 12.8221 5.20374 -0.575357 -0.293866 3.36248
1096 1 12.4402 10.8229 5.2464 0.0745841 -0.205166 0.17257
1993 3 10.616 10.9667 7.08803 -1.70172 0.289063 0.748223
1994 3 12.4257 12.7724 6.96222 -1.91968 2.31407 -0.106846
1996 2 12.4844 10.8619 8.83191 -1.92118 -2.03013 1.5981
1995 3 10.705 12.7677 8.76604 -0.93294 -1.4309 2.22888
1938 2 16.0282 8.98659 6.97025 1.51988 1.03278 -1.02562
1039 1 14.3154 9.05003 5.25971 -1.29847 2.8564 0.854985
1099 1 14.1227 12.5372 5.11204 -0.820358 2.3259 -0.160392
1100 1 16.082 10.8955 5.47307 -1.09687 -0.973816 -1.28543
1997 2 14.1337 10.9797 6.95371 -3.7353 0.167348 2.38065
1998 2 16.1217 12.6222 6.95125 -4.38401 2.12043 0.77817
1999 1 14.3366 12.5829 8.61493 -1.25588 3.39801 4.43758
2000 1 16.0849 10.9516 8.81083 -0.106748 -3.02457 -0.532599
1939 1 14.2315 9.19256 8.70594 -0.927466 -1.20488 2.22572
2003 3 17.8245 12.7133 8.74934 3.9664 -4.22378 -0.761658
1943 1 17.7705 9.10077 8.86285 0.656219 -0.161894 -4.3928
1043 2 18.0807 9.01007 5.25627 2.92227 2.57252 3.49107
2001 2 17.9081 10.825 7.14401 -1.55238 0.241601 -2.94205
1103 1 17.9383 12.5037 5.2727 -0.963163 2.82132 -3.18788
1942 1 19.6949 9.07754 7.0915 0.568065 -5.10183 -1.53155
1047 2 21.3171 9.12464 5.33333 -0.218174 -2.38182 0.883003
1104 1 19.6284 10.9044 5.3988 -1.74428 1.23822 2.29726
1107 2 21.4063 12.7554 5.21547 2.35657 3.36456 -2.72712
2002 3 19.6744 12.9763 7.16329 1.64892 -2.62952 1.33972
2005 3 21.3335 10.9807 6.99561 -2.02624 2.86166 -2.7696
1947 2 21.2775 9.06524 8.76227 2.11986 3.24876 2.47383
2007 3 21.4122 12.773 8.75831 -0.208621 2.16995 8.14448
2004 3 19.5534 10.9347 8.72609 -1.2128 3.11444 -2.5253
2012 2 26.752 11.041 8.81091 -0.929983 -4.50063 -0.720971
1051 3 24.9752 9.10224 5.27826 0.0161389 3.53828 1.2753
1946 3 23.1149 9.22592 6.94656 1.52956 -3.59128 4.45773
1108 1 23.1397 11.0972 5.31108 4.68805 -0.125136 1.72763
1111 1 24.9018 12.6196 5.34738 -0.941111 4.55654 -5.88896
2006 2 23.2116 12.7092 7.08886 4.86852 -2.19829 -3.9366
2009 2 24.8793 10.8671 7.05997 2.04067 -2.63907 -1.33712
1112 3 26.6988 10.9664 5.29721 7.00952 2.54145 1.29926
1951 1 25.0236 9.13259 8.87439 -3.63562 4.03342 1.91913
2011 1 24.8509 12.499 8.81762 2.41257 -5.26098 -3.52099
1144 2 1.9556 14.3431 5.15734 -1.96737 0.480426 4.36329
1147 2 3.4302 16.3725 5.21325 -1.65384 -1.0047 2.51983
2042 1 1.88972 16.1042 7.18213 0.701251 -1.59456 -3.81519
2045 2 3.58571 14.6202 7.04688 4.08838 -3.07939 -6.8049
1143 1 0.0178785 16.1303 5.30755 2.97457 0.117715 4.60343
2041 1 0.178258 14.4012 7.07761 -1.89298 -1.93019 3.29885
2043 2 0.0656275 16.3235 8.75254 -1.9606 -2.10194 -1.00165
2044 3 1.99596 14.4156 8.87296 1.4469 -1.37159 -2.42568
1148 1 5.27891 14.7756 5.33861 3.81383 -2.75506 -1.90439
1151 1 7.21954 16.4145 5.33501 -4.64858 0.548636 5.36808
2046 1 5.3037 16.2337 7.02924 -1.38511 -2.07408 2.4338
2049 2 7.29214 14.5261 7.04164 0.0149591 2.06684 -1.77816
2048 1 5.4439 14.5629 8.8739 -3.59327 -2.52129 -0.561278
2051 1 7.03602 16.2606 8.84621 0.109482 -0.616367 1.75533
2050 1 8.89059 16.2418 7.14908 1.7873 1.14806 -0.693979
1152 1 9.071 14.6096 5.25037 1.05418 1.31122 -0.0643247
1155 2 10.7064 16.3463 5.27374 -0.741474 -3.00767 0.434094
1156 2 12.5111 14.5242 5.44467 -1.09177 4.00953 -0.360956
2053 3 10.8703 14.6447 7.21406 -0.700152 2.00362 0.64128
2054 1 12.5115 16.3359 7.03712 0.668214 3.02559 0.98196
2055 2 10.707 16.3597 8.86026 -0.615833 -0.63084 0.640633
2056 3 12.5934 14.5252 8.86665 -1.76252 -2.0346 6.06092
1159 2 14.2087 16.2769 5.15594 -3.3269 1.44488 3.03994
1160 2 16.1508 14.2673 5.22153 1.33554 -2.17201 -1.05574
2057 1 14.3454 14.446 6.88467 -2.17641 2.75934 1.27602
2058 1 16.0798 16.1219 6.99653 -0.77592 0.398244 -5.3837
2060 2 16.1425 14.5917 8.86017 5.00599 -3.44522 5.01152
2063 1 17.7747 16.3458 8.84813 -0.000932287 0.100827 0.117991
2061 1 17.8413 14.552 7.10761 2.28663 5.40245 0.896771
1163 3 17.8571 16.3138 5.34893 1.24079 0.488489 3.21388
1164 3 19.6049 14.5586 5.32094 -0.0635407 -0.00966189 -1.5407
1167 2 21.5472 16.3047 5.28485 -2.17162 3.33823 2.71608
2062 2 19.5925 16.3833 7.18311 0.740257 0.24411 -0.110354
2065 1 21.5254 14.5958 6.94221 -2.26997 2.6998 1.09784
2067 1 21.4357 16.2673 8.87549 5.73525 2.66736 2.21721
2070 1 26.6607 16.2233 7.20487 -0.808635 -0.785667 0.294624
1168 1 23.1499 14.3892 5.21903 -2.07315 1.00757 1.10307
1171 1 24.9819 16.3249 5.28741 2.65939 -1.49942 -0.248567
2066 2 23.2414 16.2615 7.08814 -3.66911 -3.03201 -5.51805
2069 2 24.8194 14.3769 7.03966 -1.15869 1.05624 2.25423
1172 2 26.4808 14.48 5.3664 -0.624269 1.19924 0.440632
2068 2 23.2687 14.3593 8.82715 -0.00795142 -0.837769 0.294749
1204 2 1.642 18.0797 5.25677 1.534 9.41466 -2.32288
2101 2 -0.0136347 18.0725 7.13493 -0.168041 0.642073 0.91889
2105 2 3.6534 18.0329 7.16233 -0.0138414 2.01975 -1.96483
1207 1 3.63724 19.8052 5.3311 -2.62169 -0.803409 -0.0322576
1264 2 1.94027 21.4658 5.08583 5.24867 1.57842 2.92797
2102 1 1.81653 19.8554 6.96594 -0.90364 0.126227 -1.88456
2165 3 3.57661 21.6512 7.18205 1.9508 -1.31188 3.49547
2104 1 1.63993 18.0248 8.79247 -0.00814227 1.99253 -2.3043
2161 2 -0.0498314 21.447 6.9449 -0.608477 0.146234 -1.64885
2109 2 7.13666 17.9979 7.27425 0.766454 1.33032 -0.144917
1208 1 5.37867 18.0666 5.28692 6.30159 -3.33285 -0.845972
1211 2 6.97553 19.8195 5.18049 0.198783 -0.447143 0.915691
1268 3 5.49506 21.5721 5.38029 -1.72128 2.31462 5.21393
2106 1 5.43283 19.9457 7.19836 -0.73201 0.572598 3.23994
2169 3 7.1426 21.5595 7.08628 -0.306879 -4.08521 4.79159
2110 1 8.8523 19.8857 7.15624 3.33504 1.90089 -2.59418
2108 1 5.51631 18.263 8.78756 -1.15942 -1.47437 5.40531
1272 1 8.7565 21.5935 5.22762 2.71893 -2.12781 -3.55197
1212 3 8.89859 18.1487 5.19663 6.2517 -1.43607 5.29482
2113 2 10.5569 17.9697 7.03832 -2.59603 2.07675 -2.50064
1216 1 12.5429 18.0502 5.4941 0.832119 -2.75452 0.585671
1215 2 10.6639 19.9464 5.3855 0.285009 3.3928 1.55573
1276 1 12.6222 21.5389 5.28516 0.0363591 2.98354 0.63483
2114 1 12.5562 19.9051 7.03737 -0.615457 -1.26693 -0.12835
2173 2 10.7249 21.6483 7.01548 1.23198 0.9842 1.9381
2176 1 12.4593 21.5586 8.79112 -0.993803 2.83293 3.04461
2116 1 12.565 18.0174 8.7401 -0.327141 -2.08532 -1.9785
2172 1 8.90102 21.7776 8.84828 -2.45685 -4.76635 -5.13054
1220 1 16.0951 18.0155 5.26989 0.0310658 1.93514 0.413456
2117 2 14.3799 18.1706 7.03003 1.80308 -1.92121 -1.78349
1219 2 14.4944 19.8641 5.39844 -6.59733 0.612475 -0.655977
1280 1 16.1698 21.5722 5.3793 -5.16424 3.03268 -6.76602
2118 1 16.1962 19.8903 7.24425 -1.67337 -2.88473 3.68339
2177 2 14.3501 21.533 7.26377 1.79311 2.98259 5.35259
2119 2 14.2443 19.7423 8.72701 2.50262 0.336286 4.02727
2120 1 16.0763 18.04 8.65824 -1.17025 0.106194 0.629804
1223 2 17.8147 19.8553 5.19812 2.59732 -0.729089 -1.08954
2121 2 17.7946 18.0447 7.04178 1.27751 -1.40685 -0.273793
2180 3 16.0645 21.7399 8.8789 1.68508 -0.398001 -2.11589
2181 2 17.9362 21.5944 7.05005 -1.52363 0.997517 1.72907
2125 1 21.4368 18.0163 7.18081 3.15329 -0.0373131 -2.24044
1224 3 19.61 17.9825 5.27658 -2.19247 -0.203347 -3.02614
1227 2 21.4973 19.778 5.27554 2.7621 -0.615116 -1.54724
1284 3 19.6459 21.6284 5.2797 -1.56176 -0.509464 -5.10709
2122 1 19.7233 19.8295 7.10705 0.135895 -1.94195 -2.44758
2185 2 21.4671 21.7466 7.11324 3.02293 -0.741364 -2.70701
2124 1 19.5665 18.1272 8.86704 -2.34063 -0.967784 6.09742
2127 2 21.3908 19.6886 8.76312 0.793039 -4.88139 -1.83203