ITEM: TIMESTEP
37800
ITEM: NUMBER OF ATOMS
13500
ITEM: BOX BOUNDS pp pp pp
-5.0487430242618814e-02 5.3570487430237137e+01
-5.0487430242618814e-02 5.3570487430237137e+01
-5.0487430242618814e-02 5.3570487430237137e+01
ITEM: ATOMS id type x y z vx vy vz
7 3 3.62744 1.93742 1.81212 -5.96245 4.11011 -1.05269
64 3 1.79771 3.56392 1.94577 1.84012 5.29259 -1.65236
902 2 1.70456 1.90994 3.52903 0.147861 -4.34793 -1.51824
965 3 3.80161 3.50183 3.5753 -1.69509 5.11196 -2.38191
961 2 -0.0390669 3.46093 3.56054 0.160515 0.0183754 0.0889019
2 3 1.78193 1.75739 0.0129012 -1.50774 3.06432 -0.792825
65 3 3.52505 3.65605 0.0655759 0.21282 3.17361 0.149352
4 3 1.73292 0.0962663 1.84735 -1.10216 -0.693248 -3.44538
5 3 3.50927 0.179798 0.0272251 -0.117531 -1.04967 0.44581
1 3 -0.0112392 -0.0401914 -0.0271887 1.57123 -1.5872 -2.04877
11 1 7.16821 1.79991 1.72694 1.66544 -2.80765 0.331107
68 3 5.46684 3.52169 1.75312 1.75476 1.40851 4.45665
906 2 5.4545 1.588 3.63205 -5.75709 -4.86132 1.61913
969 3 7.17912 3.48992 3.66976 6.73408 0.110114 -3.61774
8 3 5.4057 -0.0233476 1.72701 -0.391869 0.434176 -1.70789
909 1 7.35745 0.0191633 3.61483 -1.93834 0.413986 0.00528495
69 2 7.29485 3.57427 -0.043326 1.20711 -0.590794 0.0023913
12 2 8.8149 -0.0058048 1.84537 -1.68649 -0.656091 -2.29899
10 1 8.76277 1.8027 -0.0439313 -0.390148 0.568278 0.508019
910 1 9.07204 1.77662 3.66902 -0.269484 2.03341 -1.15128
72 2 8.93005 3.46656 1.89964 -1.85751 -0.99199 1.74017
15 2 10.7839 1.97391 1.63075 2.07531 4.21932 1.58722
76 2 12.4102 3.68537 1.70902 1.93398 2.44003 1.02229
914 1 12.5 1.75118 3.33205 -2.31716 -0.810002 4.90094
973 1 10.7048 3.6043 3.44124 -2.34275 -2.32841 -1.28822
73 1 10.7125 3.54546 -0.0568183 -1.05044 0.398465 -3.33838
13 1 10.5125 0.0236438 0.0177604 -6.36722 0.463506 -1.87425
16 1 12.4385 -0.0274162 1.82058 0.262169 3.50871 3.52678
917 2 14.258 0.0343253 3.56511 2.67552 -2.82446 -1.13595
19 1 14.3705 1.73783 1.62387 -2.70462 -3.75725 1.91665
80 2 16.1538 3.69817 1.7411 -7.04231 1.85079 -2.32402
918 2 15.7502 1.76507 3.51233 -4.34854 -2.11106 3.28786
977 1 14.144 3.5768 3.41641 1.65389 -0.398556 -2.62331
77 3 14.2277 3.59236 0.0423911 7.07234 -2.16932 -2.27402
921 1 17.6532 0.0317691 3.60928 0.845293 1.72735 -1.80355
23 1 17.8892 1.66149 1.83569 5.31672 0.954481 0.316387
981 1 17.8227 3.53272 3.4984 -3.95068 -3.18597 2.84163
27 3 21.2275 1.78418 1.81402 5.8919 -4.82484 -2.4671
84 1 19.4646 3.6676 1.74544 -3.10849 -4.92985 0.282152
922 3 19.6141 1.57524 3.60237 0.271853 -0.15896 0.872393
985 3 21.1938 3.60349 3.51637 1.22425 0.360994 2.36975
22 2 19.4478 1.70472 0.0312451 0.82496 -1.86608 -5.24814
24 1 19.4206 -0.0349301 1.7817 -4.03573 3.93408 -2.37909
31 3 25.2104 1.81782 1.61133 -3.56941 -1.9466 -4.29545
88 3 23.1476 3.49386 1.72355 -1.46609 -0.97298 -0.485709
926 1 23.0644 1.76029 3.70829 -0.507323 1.24796 0.864145
989 3 24.8705 3.31936 3.46701 -0.483842 3.31098 6.12507
28 3 23.211 0.0966343 1.66521 -1.18338 -2.69616 0.602155
67 3 3.72317 5.32209 1.78989 -1.94666 -3.53421 3.22279
124 1 1.90483 7.31325 1.74612 0.58843 -1.53609 -0.402389
962 3 1.88761 5.33073 3.63816 -5.65743 -3.31157 4.83067
1025 3 3.57733 7.18503 3.59444 -3.0762 2.9208 1.95843
1021 2 0.023536 7.19785 3.34404 0.000390905 0.85704 3.57242
62 2 1.68657 5.26526 0.197375 -1.30585 2.19482 -2.66696
121 2 0.162685 7.30535 0.0719493 0.519842 0.0852247 -1.64502
125 2 3.61786 7.30709 0.0297106 -1.27455 2.29521 2.2146
63 1 0.216079 5.39739 1.89414 0.56493 1.69627 -2.68647
71 1 7.47019 5.23796 1.76062 1.79126 1.9833 -2.15333
128 3 5.53761 7.13129 1.82647 0.605951 -3.98105 0.79656
966 3 5.48926 5.45837 3.47999 -2.53235 4.1789 1.2402
1029 3 7.22292 7.20736 3.58999 4.43267 1.85086 3.34778
66 3 5.44681 5.18545 0.0481266 -2.51854 -2.95841 4.73933
132 3 8.87748 7.15883 1.65253 -3.8764 2.86158 3.13026
970 3 9.09475 5.36983 3.57131 2.98045 -2.05938 3.27653
75 3 10.7655 5.37593 1.78367 -0.667154 -2.58293 -0.496058
136 3 12.4673 7.23716 1.77115 -1.3843 -0.43556 0.710421
974 1 12.5101 5.41741 3.50696 -2.46376 0.378379 -1.80917
1033 3 10.7794 7.26754 3.66472 -0.960565 1.75021 1.73975
135 3 10.6837 8.84615 1.68508 1.33821 2.10884 3.17381
70 3 9.02887 5.24376 0.0308141 -1.93636 -2.38818 0.871324
1034 2 12.6731 8.71554 3.76088 3.54017 -3.05247 0.0566865
133 2 10.5856 7.13519 0.0149576 1.88656 -0.336723 0.0526812
79 1 14.2789 5.41919 1.75189 -0.880912 1.87461 1.45212
140 1 16.115 7.21142 1.81039 -2.9253 2.03988 -0.990136
978 2 15.9847 5.54199 3.73161 2.64317 0.818552 0.637254
1037 1 14.2413 7.02792 3.74002 -0.753529 -0.425124 1.14485
141 1 17.7405 7.22598 -0.0292084 5.35771 -3.79629 0.478451
137 2 14.3138 7.25299 0.0423414 3.13624 1.82512 -2.53266
1038 2 15.8996 8.81718 3.6568 3.2838 -2.16019 -2.53997
1041 1 17.8782 7.0117 3.65393 2.01314 -0.865126 2.58747
83 2 17.8654 5.43478 1.64186 -2.58127 3.76618 0.262866
87 1 21.2818 5.38224 1.70414 -4.26741 -0.874775 4.7884
144 1 19.6935 7.22207 1.66509 -1.36519 -1.37139 -3.23159
982 2 19.6276 5.37552 3.5333 -0.744039 -2.15877 4.81977
1045 3 21.4251 7.05028 3.60604 1.08962 2.82642 0.229062
1042 1 19.6159 8.76221 3.55935 -2.33029 2.58077 1.11185
147 2 21.3456 8.82795 1.77479 0.932467 3.03298 -2.12789
91 3 24.9039 5.18614 1.69163 5.58292 -1.70348 -1.28164
148 2 23.2074 6.92722 1.64399 -1.50525 1.42146 4.75156
986 3 23.1169 5.22574 3.47576 -3.89023 -3.71803 -2.86707
1049 1 24.8892 6.95091 3.35757 4.47051 -0.652136 -1.22351
1046 3 23.2755 8.83513 3.51889 -2.92059 -0.443408 -4.2182
990 2 26.7457 5.28372 3.43743 4.79583 -0.00662465 -1.33948
151 2 25.22 8.82852 1.70025 -2.33378 -7.12888 -2.98423
152 1 26.7096 7.03784 1.67991 -5.4779 1.33923 -1.57603
1022 3 1.73745 9.02728 3.58579 -0.823516 1.08061 -0.922827
123 1 0.0170499 9.09665 1.73799 0.564192 0.689388 -0.112398
127 2 3.6819 9.0493 1.86158 -0.00991413 -0.180565 -4.03499
184 2 1.96763 10.8803 1.77599 0.735422 -1.84354 -0.770234
187 2 3.70613 12.5217 1.6945 -1.45253 2.2672 -3.17471
1082 1 1.87057 12.3628 3.4856 1.80405 3.61131 -2.14318
1085 1 3.52795 10.8367 3.60792 2.59445 -1.96892 -0.121728
1081 3 0.0951874 10.6944 3.45841 -2.29658 -1.81075 -0.918323
182 1 1.83296 12.5218 -0.0515269 -0.0200919 -4.20257 -3.23092
185 1 3.74989 10.787 0.000346449 -1.52509 -1.74071 2.40742
1030 3 8.84506 8.95981 3.47464 1.14914 0.569382 -0.0673181
1026 1 5.3836 9.04418 3.51596 -6.0512 -3.69334 1.3485
131 2 7.10634 8.95977 1.6164 3.05761 -3.96245 6.42125
188 1 5.4144 10.6482 1.73085 -0.0975041 -3.0039 0.861213
191 1 7.05956 12.4774 1.73156 -0.758599 2.55576 -0.920874
1086 2 5.35211 12.5345 3.69392 -0.490511 -3.33246 -1.06347
1089 1 6.99708 10.7833 3.60773 -1.99383 0.266123 -2.62087
1090 2 8.80732 12.2527 3.71884 2.69942 0.691258 -3.19652
192 2 8.84047 10.8465 1.75922 -5.12351 5.1922 -1.93474
130 3 9.01646 9.0959 0.0172051 6.21313 2.20404 -1.96289
195 1 10.5805 12.4834 1.82691 1.8523 0.597886 2.45166
196 3 12.4627 10.6638 1.78097 -1.1964 1.61443 0.610138
1093 3 10.7565 10.5212 3.56817 4.17962 0.368384 1.06329
1094 2 12.4451 12.4976 3.54734 3.34651 4.20213 -2.56962
194 3 12.3581 12.4724 0.0279891 -0.444511 1.20103 -1.62049
193 2 10.6373 10.8065 0.00525687 0.163847 1.13757 4.81406
138 2 15.8694 8.96783 -0.0360106 -2.35315 -0.917566 -1.8676
139 1 14.2493 8.99801 1.88067 4.20338 -0.929326 -2.46177
199 3 14.1567 12.4477 1.88671 -3.22692 -0.274486 0.900909
200 1 15.9805 10.7512 1.66336 4.68135 -2.81883 -2.98422
1097 3 14.2135 10.7271 3.63284 -0.769196 -2.05979 0.309903
1098 2 15.8798 12.568 3.68858 -0.325022 -4.48842 3.73159
143 2 17.6225 8.97673 1.77095 -3.36056 -2.68431 -0.130338
197 2 14.072 10.8891 -0.010497 1.34291 -0.666072 4.5889
203 2 17.8681 12.4115 1.71252 -2.05547 1.15648 0.485109
1101 3 17.8216 10.5491 3.54697 -3.63216 3.60371 -4.12599
204 1 19.7123 10.6586 1.8812 1.17636 0.827808 -2.24723
207 1 21.486 12.1854 1.69526 -0.862868 -8.37415 -2.04401
1102 2 19.6173 12.5116 3.46049 -3.6971 -2.61363 -0.461321
1105 1 21.5196 10.4747 3.44402 4.9064 -4.4143 2.09286
205 2 21.3996 10.6899 -0.00576288 0.432682 -0.935312 -0.301804
201 2 17.9476 10.7078 0.0254918 1.38691 -0.938751 3.26751
202 1 19.6223 12.4331 0.00110928 0.632776 1.70997 2.14687
208 1 23.2816 10.4011 1.6557 -0.648043 2.36297 -1.36455
211 1 24.9762 12.4313 1.66041 2.56807 -1.35316 1.95827
1106 2 23.0456 12.4849 3.43785 -0.0236358 1.07202 -2.03196
1109 2 24.9477 10.7265 3.39276 5.5565 4.361 -1.32191
206 2 23.2538 12.5413 0.0112406 5.82785 -4.41691 -1.31675
209 2 24.8831 10.5458 0.0496634 -1.21587 1.55843 -3.31238
244 3 1.7255 14.2694 1.71389 -1.6225 1.19229 2.0023
247 2 3.56073 16.1466 1.78398 2.69179 -0.448027 0.637999
1142 1 1.91747 16.1245 3.50493 -1.7381 1.18751 -3.53269
1145 1 3.51706 14.3639 3.50736 -3.4457 0.17833 1.35556
1141 2 0.102639 14.2031 3.67089 0.275546 -3.11062 0.318788
304 3 1.69893 17.7736 1.65707 -5.05313 0.628464 3.03327
243 3 0.0390351 16.1028 1.94071 2.0277 -0.591682 -0.785227
305 3 3.53198 17.7581 -0.00493403 1.77887 -0.935993 3.15596
248 1 5.44001 14.3215 1.83624 -2.88512 2.64024 -0.983686
251 1 7.23873 15.9537 1.73959 0.62751 -2.92401 1.98311
1146 2 5.3278 16.0609 3.59741 -3.8083 1.30991 1.93523
1149 2 7.13442 14.0642 3.77489 -1.50521 -1.02387 0.00474619
246 2 5.40946 15.8359 -0.0179077 -0.784183 2.78708 -1.05126
1150 2 8.75857 15.9762 3.5776 -0.356623 -0.0748234 0.653231
309 2 7.12901 17.695 0.0641529 3.66031 5.16375 0.0388985
252 1 8.85589 14.2151 1.70334 -1.98332 -0.608368 3.60077
308 1 5.46107 17.7907 1.70891 -0.972545 -1.69267 -2.24552
1209 1 7.13334 17.7967 3.59053 0.498536 -1.32887 5.99047
255 2 10.5829 15.9945 1.74917 -0.602877 -0.893881 -1.25959
256 3 12.4821 14.2322 1.69006 0.969768 1.27281 2.34033
1153 1 10.6183 14.214 3.4576 -2.20919 2.47046 -0.461528
1154 3 12.4699 15.9411 3.4911 -1.70271 1.9119 -2.09563
1213 1 10.66 17.8161 3.61159 -3.59403 2.23013 -0.273894
312 2 9.05927 17.7273 1.67978 -5.78509 2.90446 0.546089
253 2 10.4946 14.2201 0.0867764 0.159353 0.811185 2.25824
316 2 12.368 17.8165 1.67963 -5.36018 0.969496 -0.795462
313 1 10.8578 17.7806 -0.00832392 4.36718 -2.32739 -0.528549
259 3 14.2868 16.1459 1.65294 2.12126 1.75053 4.40717
260 1 15.9858 14.2734 1.69333 1.17792 0.66578 -0.39672
1157 3 14.1816 14.3367 3.59579 -0.068717 -1.35201 0.103229
1158 2 15.9039 15.9526 3.44412 1.79247 -4.51996 0.150044
263 1 17.7898 15.992 1.76694 2.07843 -1.98664 4.34034
1161 1 17.765 14.2058 3.49521 0.104292 0.858309 4.24358
1221 2 17.642 17.7318 3.401 4.51021 -2.144 -7.1547
257 2 14.3386 14.281 0.0566851 -0.195144 -5.40663 1.95428
264 2 19.7326 14.2348 1.70832 -1.03333 1.85192 -1.78641
267 2 21.2422 16.2219 1.72404 0.758917 2.03265 1.67811
1162 1 19.6827 15.9801 3.47652 1.21366 -0.120665 -0.0856838
1165 1 21.5119 14.3065 3.54395 1.46577 0.575072 5.58595
265 1 21.4041 14.2708 0.0299447 5.1828 -0.522945 4.11176
324 2 19.3891 17.7435 1.73713 -2.08187 -5.55404 -1.30086
268 2 23.2223 14.2786 1.86594 -0.747896 -4.78513 -5.09639
271 1 24.9969 15.971 1.72838 -0.989268 0.601093 2.80262
1166 2 23.4562 16.1616 3.40931 3.3107 -1.93151 -1.71205
1169 1 24.9237 14.1143 3.51906 2.7869 -6.57708 -2.72942
266 1 23.1334 16.0986 0.233211 0.354895 -0.101335 -0.518483
1170 2 26.6902 16.042 3.55637 0.620348 4.4511 -0.0689014
269 1 25.1452 14.1542 0.00785186 3.47495 4.11422 -0.116875
329 3 25.1021 17.7557 -0.0352397 -2.65586 -0.697617 1.62065
1201 1 0.109189 18.0036 3.41992 2.98236 -0.148492 -1.07688
1205 2 3.78736 17.9027 3.31992 -2.08011 -2.40963 -1.33956
307 2 3.72154 19.7106 1.75423 -4.89309 -1.64075 -2.50035
364 2 1.71241 21.4433 1.68645 -3.09403 1.51111 0.93445
1202 1 1.84202 19.6696 3.51677 -1.86315 -1.08324 -2.96642
1265 1 3.49748 21.4474 3.46918 -0.486404 2.2547 -2.11938
302 1 1.73191 19.6341 -0.006617 1.86194 1.08694 -0.397956
365 2 3.55132 21.5214 -0.0467326 -0.503389 1.79648 -0.801878
311 1 7.19996 19.5822 1.57078 3.32198 -0.902588 1.2714
368 1 5.31488 21.5285 1.79132 -2.07265 -0.562114 1.24366
1206 2 5.41326 19.7699 3.54268 -2.06645 -1.43977 2.12458
1269 1 7.2119 21.4586 3.35308 4.22589 -1.83237 0.640281
1210 2 8.787 19.7273 3.52294 0.686328 1.57521 0.543251
369 2 6.95604 21.4586 0.0441696 -2.90253 -3.09307 -3.31505
306 3 5.39214 19.6472 -0.0478478 -3.70852 1.35982 -1.58419
372 2 8.92846 21.4692 1.41783 -1.19296 3.96435 3.0779
315 1 10.7861 19.6333 1.66559 -3.57573 0.5059 -2.92736
376 2 12.6072 21.2645 1.69851 -1.4623 -2.38089 3.44479
1214 2 12.4758 19.7082 3.61333 0.431097 0.48415 -0.802706
1273 1 10.7008 21.3676 3.26567 -0.403326 -2.62999 -1.01793
320 2 16.2204 17.8503 1.58524 2.09851 5.15669 3.14546
1217 1 14.1267 17.8481 3.5295 1.86558 -1.22408 3.25206
319 3 14.4541 19.6779 1.68009 1.4043 0.151991 -0.515421
380 3 16.0272 21.5553 1.65977 -3.27366 -2.38729 -0.488403
1218 3 16.0223 19.521 3.44872 -1.8262 -1.31895 -1.4446
1277 1 14.3027 21.4205 3.53279 -3.23375 0.445668 0.787482
1281 2 17.6235 21.6562 3.62228 -2.75337 0.711443 3.29386
317 3 14.3194 17.9124 -0.028785 2.15065 2.58739 -0.831729
1225 1 21.211 17.8701 3.45665 2.35489 4.70276 2.65565
323 1 17.8455 19.5966 1.79885 0.200613 0.994442 2.868
327 3 21.3623 19.6599 1.6956 -1.66288 -0.557903 -0.177678
384 3 19.5452 21.5635 1.73235 2.30407 4.09981 -3.35536
1222 1 19.4764 19.6352 3.46014 0.874668 -1.28556 -2.41727
1285 3 21.3657 21.4568 3.54415 3.10953 4.06693 -4.05356
325 1 21.2016 17.832 0.119884 2.36328 -3.39697 0.659113
328 2 23.2185 17.8939 1.85823 3.87644 -2.38947 0.305332
1229 3 25.0729 17.8469 3.58438 2.04102 -1.69359 -0.0841437
331 3 24.8986 19.6518 1.70855 4.91086 0.71931 -0.968483
388 3 23.2583 21.4461 1.75528 3.02942 -1.56479 1.32078
1226 3 23.078 19.638 3.5344 -4.97424 -0.623817 -0.459621
1289 2 25.1314 21.4368 3.65104 -2.01331 0.531061 -1.73873
392 3 26.6696 21.5824 1.66282 -1.20033 2.88871 -0.697849
389 3 24.9331 21.5536 -0.0348101 -4.09103 1.97149 2.92186
363 1 -0.0306299 23.2125 1.56403 -0.439985 1.27072 2.06574
367 2 3.5265 23.1067 1.74856 -2.41235 0.0973069 -0.453906
424 2 1.82661 24.994 1.79954 -4.03101 2.75573 -0.542688
1262 1 1.77752 23.3074 3.3727 -7.57213 -0.409582 0.332387
1325 1 3.37121 25.0495 3.40888 3.01577 -3.96734 -0.744378
427 1 3.5002 26.6695 1.52608 -2.5892 2.75821 5.77685
425 3 3.61508 24.9305 -0.00196536 -1.68626 -2.28805 -2.04316
1322 1 1.64932 26.7549 3.51091 -0.128465 -0.773964 4.0599
371 1 7.13265 23.229 1.60174 3.10787 2.41458 -0.636471
428 2 5.32366 25.0186 1.69266 -2.6396 5.72355 -1.39202
1266 2 5.28783 23.1606 3.47313 2.04384 -1.15962 2.83116
1329 3 7.01316 24.9127 3.40917 0.418619 0.456362 0.17548
1326 3 5.18486 26.6331 3.38277 -1.68717 -1.99366 2.66579
1270 2 8.92045 23.3211 3.29727 3.0482 5.71562 -3.37495
432 2 9.01488 24.8621 1.57589 2.64567 0.834521 -1.82147
375 1 10.8474 23.1513 1.54121 -0.89157 0.4545 -0.543064
436 1 12.5121 24.9426 1.56423 -4.22217 4.08136 -2.45081
1274 2 12.4805 22.9844 3.27175 3.86294 -1.24787 -3.06711
1333 3 10.8129 25.0097 3.42272 0.122432 0.771947 1.9519
1330 3 9.08849 26.694 3.51759 0.304075 -1.02161 -0.797025
439 2 14.1608 26.6382 1.73381 -1.16502 2.96471 4.20045
1338 1 15.9523 26.6483 3.39673 -1.972 -1.28458 3.02547
379 1 14.3184 23.2388 1.60847 3.02365 0.412209 -2.25903
440 2 15.9672 24.9367 1.57215 -4.20067 3.17441 0.571512
1278 2 16.0485 23.1945 3.46084 -3.30119 -0.569894 -2.21891
1337 1 14.1819 24.85 3.54644 1.40057 -2.7138 3.24103
1341 3 17.7464 25.0442 3.58691 0.758504 0.922061 -2.04773
383 3 17.8306 23.3177 1.67917 -3.5461 0.98975 -0.894076
387 3 21.479 23.2115 1.59369 2.99134 5.24097 -0.28749
444 3 19.7246 24.9919 1.61207 6.61942 3.60236 3.79653
1282 3 19.566 23.1768 3.41376 3.67829 0.723438 0.379537
1345 3 21.4354 24.899 3.41943 1.90074 3.66355 0.0752064
441 1 17.9154 25.1347 -0.0405415 2.90195 1.83645 2.28889
391 3 25.0642 23.2614 1.68153 -1.78975 3.86418 -3.87252
448 3 23.2176 25.0529 1.64779 -2.66496 -0.126432 3.64567
1286 3 23.2057 23.2692 3.40547 -5.90882 1.69192 -0.8473
1349 2 25.1333 25.0149 3.49709 1.94036 3.24113 -3.06469
386 3 23.0705 23.2962 0.0201198 -0.214021 -3.59377 5.61208
452 2 26.7559 25.1245 1.65164 -0.785884 3.46377 -3.42682
907 2 3.66611 1.67853 5.1731 -4.77818 -4.16947 0.795979
964 1 1.89063 3.47344 5.37837 3.74504 2.82548 4.61143
1802 2 1.89313 1.70652 7.0642 -0.686675 -0.221077 -2.9647
1865 2 3.68809 3.41208 7.07884 -1.80592 -0.972814 -0.371481
1801 2 0.0944661 0.0256484 7.16286 -2.66623 -5.82235 2.11488
1861 2 0.0453574 3.31909 7.05839 -1.73388 -0.914287 0.320142
903 1 0.0977897 1.67662 5.30981 3.28572 1.21066 2.14446
911 2 7.22202 1.63819 5.52932 1.06438 0.49512 1.26525
968 3 5.48842 3.42917 5.46845 -2.59219 -1.52587 -3.36257
1806 1 5.31673 1.48333 6.949 -1.7314 -0.641985 0.773077
1869 3 7.31159 3.4982 7.11445 -4.84929 -1.0528 0.978552
1811 3 7.24493 1.72118 8.81435 1.14744 -2.18366 2.1848
972 3 9.08181 3.42597 5.47151 0.553799 -0.865001 -0.595849
1810 1 8.98831 1.62441 7.20161 0.784254 -0.772875 0.815648
915 2 10.77 1.63791 5.28566 0.188955 2.08062 -3.52283
976 2 12.3067 3.48501 5.35389 -0.70342 4.03298 -1.28971
1814 3 12.5179 1.76695 7.24116 -1.66849 -7.38235 2.65173
1873 3 10.7937 3.45613 7.29766 6.40792 -1.60132 -1.17199
1812 2 9.04379 0.0181331 8.72433 -2.3469 -3.46644 -0.266562
916 2 12.3849 0.0295584 5.22339 1.43743 5.82212 3.23422
1813 1 10.7398 -0.0476131 6.96994 -2.06883 0.493865 -2.87551
919 1 14.1455 1.83762 5.36992 -1.14965 -2.35918 3.91791
980 1 15.9571 3.66625 5.02272 -2.6955 -1.11306 1.74625
1818 2 16.0073 1.90678 7.06261 -0.476306 0.533625 1.61732
1877 1 14.2331 3.52955 7.30106 1.31351 1.62795 2.30491
920 3 15.8508 0.0780857 5.33674 -0.139996 0.28284 3.22344
1881 2 17.7077 3.44147 7.00674 4.93336 -5.50446 -0.337561
1823 3 17.7289 1.74868 8.83782 -0.376016 1.32867 1.1322
1817 3 14.2279 0.0416183 7.16988 4.26142 1.92967 0.422717
923 2 17.9143 1.61823 5.12048 -7.12862 -2.91147 -1.50481
927 2 21.2756 1.69193 5.43085 -1.36651 0.0149004 1.97732
984 1 19.6354 3.39929 5.3607 0.615886 2.85836 1.12374
1822 1 19.5548 1.64684 7.17894 -5.53407 -1.40206 0.318785
1885 2 21.313 3.44299 7.16581 -1.68482 -1.9548 -0.279522
1824 2 19.6666 0.00874023 8.87465 -1.07108 4.7338 0.470958
1829 2 24.9341 -0.0292528 7.21669 0.916987 0.281834 -0.432353
931 1 24.9743 1.78383 5.31469 0.0122829 -0.318031 2.17713
988 2 23.124 3.49528 5.26072 1.03999 1.09532 -4.69437
1826 1 23.335 1.72279 7.00195 -5.81573 -0.755515 2.291
1889 1 24.9515 3.49217 7.30205 -0.520298 -2.68474 -3.39579
1830 2 26.6801 1.56489 7.0448 1.22788 -0.112819 -4.97125
1888 2 23.2379 3.52924 8.82526 2.79208 -1.30307 -0.991611
992 3 26.6981 3.37984 5.24345 -5.32584 1.95884 1.41493
963 3 -0.0136376 5.3336 5.26583 3.15202 -0.268281 -1.43884
1921 3 0.0208963 7.15056 7.0215 2.08121 0.827217 -1.99145
967 3 3.6543 5.51395 5.40807 -0.255435 1.91166 -0.40611
1024 3 1.9763 7.1625 5.3229 -1.18294 1.47606 -1.88721
1862 3 1.90145 5.19468 7.10316 0.440761 1.36026 -1.68183
1925 3 3.70595 7.11104 7.14885 -3.68938 1.8463 -1.80664
1924 3 1.8489 7.11533 8.88293 -1.79058 -1.96257 0.562353
1023 3 -0.0517186 8.86572 5.29088 -0.567981 -0.0808649 1.01439
1922 3 1.83331 8.79233 7.1374 -0.361755 -0.635748 1.34085
971 3 7.29483 5.38652 5.32782 3.94846 1.66144 2.67277
1028 3 5.43293 7.15524 5.18972 -0.960103 0.902593 2.9822
1866 3 5.52581 5.38892 7.15904 0.790569 3.3966 -0.33952
1929 3 7.1958 7.06244 7.13706 0.606819 -0.745785 0.0489072
1926 3 5.39239 8.85055 7.17856 2.21205 0.542953 3.26435
1870 3 8.99407 5.27601 7.13417 4.51362 0.851128 -2.66104
1032 3 8.98628 7.16288 5.34527 0.418931 3.06921 -2.56248
975 1 10.8622 5.47315 5.2984 -1.28391 -4.10386 -2.10736
1036 2 12.5428 7.1973 5.57978 1.08147 -2.39761 -0.15097
1874 1 12.4208 5.30979 7.29394 -0.044266 3.05802 -4.18144
1933 2 10.7216 7.02006 7.12902 0.428975 1.38624 5.892
1035 3 10.5793 8.82477 5.30677 -7.5101 -0.206115 2.09922
1936 1 12.5765 7.13088 8.85968 0.129243 0.228206 -2.67379
979 2 13.9622 5.18042 5.30812 2.54885 4.9746 7.62362
1040 1 16.0963 7.24146 5.44432 1.88403 -0.272586 -3.05644
1878 2 16.0204 5.13489 6.88569 -5.89804 4.39399 -0.467869
1937 1 14.463 6.89196 7.16059 -0.191641 -0.641621 -1.01248
1940 2 15.9989 7.07264 8.65828 4.24663 -3.85737 -1.27802
1941 1 18.0333 7.02224 7.11779 1.02311 0.798477 1.95928
983 1 17.9346 5.2321 5.32717 -2.98206 0.0433105 0.789749
987 1 21.3255 5.2219 5.337 -5.0161 -1.38094 -1.75271
1044 2 19.6861 6.98994 5.28909 -1.20191 -3.95476 -1.51668
1882 2 19.6405 5.02868 6.97837 -5.59277 1.78025 3.58169
1945 3 21.4481 7.02556 6.9686 -2.67701 0.998708 -0.0372465
1944 2 19.7519 7.08976 8.73429 -2.41505 0.995761 3.01853
1043 3 17.924 8.879 5.24334 -1.71352 0.569361 -3.04112
1887 1 21.3628 5.43551 8.87467 0.942014 -3.98077 6.51168
1883 3 17.9239 5.2581 8.74907 0.539834 -2.97348 0.738403
1942 3 19.6872 8.80647 6.99598 -1.56514 -4.67565 -3.57142
991 3 24.9724 5.09476 5.27295 -2.12727 1.67377 -3.02158
1048 2 23.2314 7.02418 5.31049 -2.77036 2.10251 1.30367
1886 1 23.2593 5.22676 7.11434 1.1497 -1.24364 -1.26014
1949 2 24.8971 7.02721 6.93081 4.11018 1.82725 -1.62249
1052 2 26.6872 7.14037 5.32437 -2.61211 5.10943 1.59322
1890 3 26.6766 5.12566 7.17138 2.31932 -1.74152 3.39604
1946 1 23.291 8.78158 7.15945 5.46609 -1.15915 3.03356
1951 1 25.0816 8.7709 8.74691 1.91964 0.877439 -4.25895
1948 2 23.2553 7.02566 8.79242 -2.8538 -2.16739 -7.7687
1952 2 26.7243 7.04777 8.87594 -2.64304 3.63131 -2.53515
1027 3 3.62273 9.00602 5.28022 0.520492 -0.449428 2.68769
1084 2 1.83652 10.6849 5.31552 -5.84585 0.754499 2.49867
1087 3 3.58327 12.5686 5.23584 0.44231 0.943516 3.63715
1982 1 1.67347 12.3504 7.0759 0.851452 2.2238 -0.524456
1985 3 3.59306 10.6782 7.0245 0.411073 2.19853 -2.93495
1987 1 3.56597 12.4826 8.74931 0.168073 -1.15423 1.8225
1083 3 0.104298 12.365 5.25516 0.358668 -6.41901 -2.28329
1984 3 1.79484 10.7171 8.83079 1.08481 -2.62874 0.408656
1981 3 0.0180892 10.5503 7.09484 -0.469475 1.58578 5.68731
1983 2 0.0622957 12.3711 8.79503 -1.11179 0.0785669 2.32573
1031 3 7.13884 9.12184 5.33133 0.136526 0.705512 0.286993
1088 2 5.31765 10.7421 5.44528 -4.18978 -0.143771 1.06816
1091 1 7.01655 12.4957 5.55597 0.233151 -1.54251 2.15814
1986 2 5.32568 12.3364 7.15382 -1.53085 2.14389 -3.85595
1989 3 7.25284 10.6251 7.11489 1.05336 1.56928 0.863317
1931 3 7.19638 9.0653 8.86031 1.23967 -0.813709 1.44319
1991 3 7.0915 12.4771 8.79014 1.17029 -0.483413 -3.19678
1988 3 5.2726 10.549 8.82088 -3.62022 2.06939 -3.20672
1930 3 8.93281 8.90964 7.06589 0.502608 -1.3483 0.840016
1934 3 12.4282 8.89315 7.25509 0.660507 -1.44822 -4.279
1092 2 8.90851 10.6593 5.48338 -0.359444 -3.44509 -0.722803
1990 1 8.93957 12.4281 7.08188 -0.906997 -0.520671 -1.88996
1095 3 10.546 12.3307 5.29759 -3.70866 2.12712 -1.30605
1096 1 12.5547 10.5729 5.39164 5.85768 0.500293 4.07093
1993 3 10.859 10.7667 7.16361 -1.36095 3.39331 -3.76675
1994 2 12.5588 12.5768 6.95595 0.227696 1.1843 0.629425
1992 3 9.07325 10.6738 8.79899 -4.09125 -1.39073 -0.0952573
1995 3 10.7543 12.4218 8.8479 -1.55279 0.66114 -3.27497
1039 1 14.2831 8.90127 5.51782 3.52675 4.20927 -2.80952
1938 2 16.1644 8.92523 7.14029 -1.08066 -0.934652 0.719538
1099 1 14.2032 12.538 5.41621 3.24023 2.07132 1.21303
1100 1 16.0365 10.6303 5.40728 -3.42705 -2.89161 -0.313572
1997 2 14.412 10.7216 7.15124 3.28051 -2.65113 3.14629
1998 2 16.0376 12.5596 7.25542 -0.849581 6.52931 -1.62901
1103 1 17.6948 12.4951 5.17754 -0.730882 -3.66105 0.521095
2003 1 17.6715 12.5275 8.86475 0.4335 -0.31829 1.63193
1939 1 14.4723 8.92818 8.87825 0.993448 -3.22271 -0.692493
1999 1 14.0912 12.4288 8.86674 2.08198 -0.546616 -4.64027
1943 1 17.8314 8.89694 8.82494 0.438934 -0.726205 3.64455
1047 2 21.4812 8.9633 5.11916 -0.837032 2.25217 0.126595
2001 3 17.8604 10.7635 6.97508 -2.31494 2.30389 5.78804
1104 3 19.7228 10.7027 5.07209 -2.77694 -5.92862 2.18539
1107 3 21.4888 12.4242 5.31405 -5.91085 1.6772 0.168539
2002 3 19.5654 12.4067 6.86224 5.4281 -0.257186 -1.26224
2005 3 21.3929 10.5553 7.10403 1.13931 -1.40585 3.63484
2004 3 19.5614 10.676 8.81812 1.39215 -0.590586 9.1304
2007 3 21.4463 12.4962 8.71137 -3.37585 1.03632 3.23221
1051 1 24.9994 9.01112 5.23588 2.18741 -1.2271 0.850756
1108 3 23.2738 10.6643 5.26612 1.6714 -0.0507042 0.977853
1111 2 25.033 12.7462 5.43662 2.6312 -1.37263 -2.17981
2006 1 23.3137 12.5189 7.17007 -0.754973 2.08246 2.04456
2009 2 25.1863 10.6308 7.08367 0.265361 -1.3263 1.70636
2008 3 23.0311 10.7765 8.85513 -1.71083 4.59325 0.243804
2012 1 26.6875 10.8475 8.88608 -0.679149 1.79216 0.815306
2011 1 24.9697 12.439 8.83292 4.1536 -5.11846 -5.71594
2041 1 0.126795 14.2318 7.08046 0.522679 0.659844 -3.88069
1143 1 0.130377 16.1379 5.24137 0.544775 -2.28636 0.872473
1144 2 1.70442 14.4167 5.3285 0.80376 -4.83513 6.8978
1147 1 3.56262 16.1276 5.21808 -0.803058 -1.10687 1.46124
2042 1 1.79705 16.1938 6.9158 0.995085 5.2548 -2.41055
2045 2 3.45407 14.1639 6.98905 -0.0085369 1.77548 6.97849
2044 3 1.84558 14.3093 8.88038 0.554569 2.28287 -0.370924
2047 2 3.55447 16.0141 8.88674 0.677896 -0.640633 1.69153
2043 2 0.0679896 15.9115 8.7764 -1.39566 1.09799 -1.69029
1148 1 5.34631 14.1747 5.29287 2.05237 -2.64751 6.63106
1151 2 6.98662 16.0781 5.37333 -1.62615 1.53933 0.65746
2046 1 5.19805 16.133 7.05471 -4.58293 -2.59058 3.69441
2049 2 7.25223 14.3369 7.1196 1.95051 1.23314 -0.575052
2048 3 5.2905 14.214 8.70438 1.22417 2.5905 -1.64249
1152 1 8.98052 14.3222 5.25099 2.39574 -1.92825 1.46994
2050 1 9.03466 16.0814 7.0365 -1.61368 1.44379 -1.28158
1155 2 10.6448 15.9797 5.2662 -1.5854 2.20685 0.349225
1156 1 12.4127 14.2236 5.3825 -0.596633 -0.902827 -2.59759
2053 2 10.7304 14.0931 7.00889 -3.62218 4.94052 -0.125502
2054 1 12.3738 16.1075 7.25821 -2.54236 0.96752 -6.60721
2055 2 10.6372 16.0368 8.80274 -1.84861 2.37916 2.05289
1159 2 14.119 16.1225 5.4587 -0.401656 -6.4436 0.434774
1160 3 15.9187 14.308 5.3185 1.55182 0.817031 -0.459773
2057 1 14.2126 14.3487 7.35598 -2.43199 -0.00070909 1.73603
2058 1 15.9425 16.2234 7.15712 0.872814 -1.84697 -1.2703
2060 1 16.1042 14.3454 8.79992 4.43385 2.27142 2.95287
2061 2 17.7431 14.2351 7.00209 -0.383109 4.75993 0.246658
1163 1 17.6376 16.0807 5.38927 0.898601 0.848536 -3.03805
1220 1 15.9494 17.8128 5.19464 -1.75648 -4.20491 -4.87927
2063 1 17.9533 16.0192 8.76826 4.51063 -2.0841 0.318763
1164 2 19.5779 14.4347 5.25706 -4.28805 3.94652 1.11619
1167 2 21.4982 16.0995 5.16301 -4.01105 1.13483 2.27462
2062 1 19.4449 15.9024 7.08543 0.570334 -0.581848 -0.651148
2065 1 21.3962 14.203 7.14348 0.969617 -0.814719 -4.76429
2064 2 19.57 14.015 8.86355 -0.756453 3.0267 -1.28564
2125 1 21.259 17.6307 6.92395 2.50187 1.95903 1.60535
1224 2 19.4407 17.597 5.25312 -1.03625 -2.63772 2.85891
1168 3 23.0157 14.3863 5.35113 -1.58722 -2.84813 -4.24887
1171 3 24.9661 16.0696 5.33494 1.45833 0.990857 2.27189
2066 2 23.1627 16.1046 7.12455 -1.25052 3.55832 2.36571
2069 2 24.996 14.3802 7.02346 0.427675 2.02259 0.905644
2128 1 23.1456 17.7937 8.63822 3.75173 0.798377 -1.22255
2129 3 25.0894 17.7727 6.9979 -1.44041 -3.85112 3.38576
1204 2 1.87652 18.0097 5.1329 -0.919113 -2.04048 0.841307
2101 2 0.118102 17.902 7.17732 -1.44747 -5.09378 -0.742999
1203 1 -0.0182804 19.85 5.27277 -2.4882 1.48035 0.161713
2105 2 3.48247 17.8605 7.01473 2.56529 0.689593 1.30721
1207 3 3.61707 19.65 5.37133 -1.40107 0.675455 -4.67565
1264 2 1.75789 21.469 5.34643 -2.13178 -1.35016 -2.91573
2102 3 1.69363 19.7225 6.99222 0.702272 -3.40152 -4.38842
2165 1 3.63021 21.5047 7.05086 -1.43456 -0.475474 -3.57372
2107 2 3.54266 19.8638 8.84324 1.89444 -1.86091 0.765737
2161 1 0.0619602 21.4934 7.13662 1.74348 -0.720527 -2.10695
2103 2 0.107329 19.6011 8.87448 -1.62258 3.76619 1.67951
2104 1 1.74677 17.8715 8.8346 -0.89468 -0.87064 -2.90935
2109 2 7.04287 17.9788 7.1046 0.0570034 -2.95229 -0.688094
1208 1 5.22284 17.8938 5.28551 -1.61555 1.4498 -1.83985
1211 2 7.0866 19.6611 5.21935 -2.17161 2.5358 2.9494
1268 3 5.32662 21.4319 5.21051 0.0940591 -4.41574 0.54352
2106 1 5.38693 19.6692 7.12992 4.33945 -1.25479 4.7289
2169 2 7.15094 21.5718 6.89531 0.552769 -2.77925 -0.0478684
2110 1 8.71772 19.7887 7.21619 1.99765 -4.13072 1.03155
2168 3 5.37847 21.5885 8.7886 -0.365838 -1.68178 -1.61498
2108 1 5.35322 17.89 8.72246 0.715938 0.80272 -4.198
2172 1 8.87366 21.5139 8.73651 -1.81591 -1.61254 2.46942
1212 1 8.9565 17.9501 5.34648 3.38053 5.12504 0.175645
1272 1 8.89566 21.3951 5.26707 -1.64343 3.88981 -2.9118
1216 1 12.3227 17.9148 5.27526 4.99631 -6.01077 1.74274
2113 2 10.609 17.9014 7.12965 4.25208 -1.0467 -1.6944
1215 2 10.5963 19.8377 5.28303 5.43466 -1.0699 -3.47432
1276 1 12.4884 21.5493 5.45312 -3.16096 0.48504 1.65959
2114 1 12.424 19.5573 7.01507 2.12061 4.6325 -1.14795
2173 2 10.7817 21.5123 7.05112 -0.0568093 -3.9216 -1.60556
2115 1 10.4246 19.6364 8.84925 -1.08051 0.968117 0.730978
2176 1 12.2775 21.396 8.80002 -0.733024 -0.472326 -0.721692
2121 2 17.8131 17.8301 7.04495 -1.21975 1.96885 0.582184
2120 1 16.0685 17.8386 8.78401 2.94249 1.85294 -0.969711
2117 3 14.1698 17.999 7.06531 -3.24725 -2.58452 -3.75524
1219 2 14.3168 19.6162 5.28212 -6.72159 -7.47218 2.74321
1280 1 15.9612 21.3745 5.43541 0.339286 -0.607402 2.35932
2118 1 16.1026 19.725 7.1469 -0.453136 0.640557 1.69985
2177 2 14.1388 21.4435 7.09958 -0.0742132 0.54365 -1.97736
1223 2 17.7692 19.7308 5.20476 3.42905 -2.99895 -2.92272
2119 2 14.216 19.7679 8.78016 3.60298 -3.07749 -4.70647
2181 1 17.8964 21.6124 7.10921 -0.704153 -2.31524 2.90552
2124 1 19.7302 17.8459 8.7223 -1.43868 -1.33739 -0.779079
1227 2 21.2244 19.668 5.26031 -1.7622 2.53745 -2.3239
1284 3 19.5264 21.4122 5.36577 3.44137 -4.24555 -1.27587
2122 3 19.6204 19.6565 6.93603 -1.94812 -2.92304 -2.91601
2185 1 21.4934 21.4678 7.11156 2.00424 1.05605 -0.0790089
2184 2 19.7011 21.3501 8.81461 1.43577 2.84457 6.09911
2127 2 21.5308 19.7315 8.65267 2.23272 -3.16976 3.47961
2123 1 17.983 19.6527 8.70246 0.579388 -4.00282 -3.03524
1228 1 23.1829 17.8514 5.30231 -0.0376783 0.930023 -0.0181926
1231 3 24.8974 19.6784 5.20315 1.36741 -4.18717 -2.69769
1288 3 23.1138 21.4225 5.24828 -0.526753 -2.77908 1.287
2126 2 23.2363 19.5346 7.01797 1.58735 -3.91455 -0.705675
2189 2 25.0114 21.4232 6.93544 1.14101 0.097238 -2.65839
2131 3 25.1303 19.7566 8.83659 3.5651 3.3212 1.38114
2188 1 23.3339 21.4388 8.87456 0.608752 0.370337 -0.422533
2130 3 26.6832 19.6396 6.93848 1.81382 1.09231 0.765682
2222 1 1.70133 26.739 6.85107 -2.59562 -2.35713 3.78695