ITEM: TIMESTEP
90600
ITEM: NUMBER OF ATOMS
13500
ITEM: BOX BOUNDS pp pp pp
-5.1744709810513712e-02 5.3571744709797414e+01
-5.1744709810513712e-02 5.3571744709797414e+01
-5.1744709810513712e-02 5.3571744709797414e+01
ITEM: ATOMS id type x y z vx vy vz
7 3 3.62762 1.78036 1.8133 -4.28624 5.26825 -6.25427
64 3 1.84668 3.51592 1.71144 -2.72741 -0.327702 -4.2769
902 2 1.60645 1.66443 3.46114 -1.02399 2.03935 1.59525
965 3 3.48947 3.49845 3.58033 0.646643 -2.3713 -1.36628
4 3 1.77351 0.0447362 1.65856 3.21958 -4.2575 2.22058
61 3 0.00986161 3.61298 0.0112543 2.39365 -0.167344 -3.0793
905 3 3.54123 0.0619598 3.49414 6.00545 -1.77226 2.15034
3 2 0.0172121 1.76841 1.63252 0.0177796 0.549889 -0.300482
961 2 0.0204349 3.4841 3.56887 3.44573 2.02962 -4.10847
901 1 -0.0338763 0.0872342 3.37014 0.874831 -1.51115 -1.12466
1 3 -0.0175025 -0.0391682 -0.0477123 0.872495 4.24415 1.72503
11 1 7.0993 1.64603 1.7473 1.06408 -1.02645 -0.126052
68 3 5.38132 3.72768 1.82599 -4.06704 -1.34929 -7.14783
906 2 5.35725 1.72449 3.69232 -0.390349 -1.69057 -4.95604
969 3 7.13647 3.64208 3.57269 3.53913 1.85439 4.43917
8 3 5.4754 -0.0128744 1.68957 -0.133073 -0.0509148 0.665352
909 1 7.21774 0.00197699 3.65102 2.09091 -3.08666 3.93039
69 2 7.10602 3.65163 0.129121 2.5986 -0.210765 -2.28564
12 2 8.88439 -0.0271763 1.70596 1.74266 0.135656 -2.57975
910 1 8.85762 1.73824 3.44925 1.03108 -2.39234 0.283125
72 2 8.80694 3.48647 1.762 -1.258 -1.46536 1.98647
10 1 8.82466 1.7742 0.000813075 -3.74033 0.276883 -3.45912
15 2 10.6764 1.75714 1.73602 -4.0549 -2.13051 1.7223
76 2 12.5748 3.63343 1.78529 2.77009 3.27273 -1.93913
914 1 12.556 1.79521 3.43841 -3.6185 -1.99224 0.764145
973 1 10.7198 3.59659 3.46392 0.196296 -0.193179 -1.31865
73 1 10.8508 3.6367 0.15913 0.579937 3.52655 -1.3561
14 2 12.4155 1.88492 -0.053522 1.54468 -1.64538 -0.996194
913 1 10.7782 0.12099 3.41092 0.716771 -0.498058 -3.85704
16 3 12.692 -0.0204342 1.49506 2.50648 -0.611891 1.73825
19 1 14.362 1.95024 1.70344 3.58241 0.499245 -2.42202
80 1 16.1642 3.71792 1.58078 -1.96151 -3.951 -2.00278
918 2 16.3453 1.79752 3.48201 -4.02836 2.77203 0.656065
977 2 14.4321 3.54174 3.46797 -1.83008 0.1274 -0.355959
77 1 14.245 3.6767 -0.0311028 1.82474 1.59775 1.01932
20 1 16.1404 0.309816 1.6506 0.973347 2.48634 2.12214
917 2 14.2914 0.13978 3.51946 3.39116 3.67603 -1.70043
981 1 18.0974 3.683 3.56688 -1.6322 4.65518 3.10238
23 2 17.8603 1.87581 1.63987 -2.24374 -0.413281 -0.682152
27 1 21.3813 1.726 1.72072 1.32021 4.98455 2.27871
84 1 19.6731 3.672 1.68411 -1.60298 4.2894 -2.22062
922 2 19.6435 1.8405 3.46501 -0.475827 -0.447702 -2.2911
985 1 21.5981 3.67814 3.53762 -1.94035 -2.2054 6.30078
24 1 19.6498 0.0512946 1.60304 -1.88475 2.34537 -0.520678
921 1 18.0317 -0.0125321 3.64515 -0.763369 -0.152984 0.182707
925 2 21.4105 0.0896839 3.60594 -1.5539 0.314746 -0.453083
31 3 24.9407 1.89236 1.64378 0.91609 0.671872 -1.80001
88 3 23.1889 3.74589 1.72227 1.78842 5.97365 1.38346
926 3 23.3283 1.78471 3.44499 -2.44874 0.633349 -0.669733
989 3 25.0133 3.50442 3.41061 4.06807 -2.29586 0.995602
28 1 23.0932 -0.0488604 1.74574 0.380945 -3.01187 0.638291
30 2 26.6645 1.92825 -0.0507936 -0.669833 4.87707 0.222136
1021 2 -0.0332923 7.07392 3.45497 0.582789 3.05778 2.85612
67 3 3.63542 5.3863 1.60544 -1.3795 4.41209 -4.35885
124 1 1.85899 7.26003 1.6846 -3.37332 3.439 0.247732
962 3 1.87228 5.35563 3.46685 0.74396 -3.45686 2.82899
1025 3 3.62927 7.12503 3.51884 5.58428 3.37973 -1.78303
125 2 3.72054 7.28882 -0.00951763 0.05681 1.89195 -1.07366
63 1 0.154754 5.55397 1.73212 0.687732 -3.67918 4.45403
62 2 1.82353 5.46396 0.0425879 0.436221 1.43372 -1.20275
121 2 0.201899 7.16149 0.000282119 -4.21977 0.634426 3.40655
71 1 7.03943 5.46318 1.64837 -0.692933 -0.948948 0.752064
128 2 5.40979 7.18844 1.82406 -0.608076 1.44751 0.108543
966 3 5.25121 5.40482 3.65358 -4.28036 -5.09875 -4.39959
1029 3 7.0531 7.07486 3.672 -2.62261 1.19245 -1.45231
129 1 7.22593 7.23141 0.0897337 0.3641 -2.93721 -3.04725
970 3 8.86576 5.30551 3.56226 -0.173519 -1.39056 1.96487
132 2 8.85756 7.35162 1.89293 -2.49787 2.45605 3.77322
70 1 9.10668 5.49398 0.0252014 -2.87184 3.28563 -1.22874
75 2 10.6137 5.40411 1.75022 2.17595 -0.662336 0.614105
136 1 12.4101 7.42989 1.67802 -6.43096 1.96834 -0.983534
974 1 12.446 5.31965 3.37337 -1.19091 -0.57784 -2.32998
1033 3 10.6783 7.08337 3.50963 1.22683 3.61807 1.05936
74 2 12.48 5.45221 -0.0428992 -3.43353 -1.27333 -1.82478
133 2 10.6159 7.38292 0.141359 0.706785 -0.946157 -1.2734
79 1 14.2729 5.60379 1.80017 -1.03666 1.49019 0.680261
140 1 16.0709 7.39196 1.86084 -2.17225 0.364128 2.06151
978 2 16.3476 5.53975 3.41487 -0.410002 -3.45105 3.46355
1037 2 14.3513 7.25973 3.65479 -2.37664 0.555568 -2.14604
137 2 14.3223 7.59233 0.0616565 -0.789146 0.728769 -1.62941
78 2 16.011 5.60006 0.162502 -2.95175 -5.55596 6.50404
1038 2 16.1397 8.85677 3.72801 -1.50466 -4.29815 1.53195
83 2 17.9365 5.59712 1.57699 -4.09668 1.48731 1.51826
1041 1 18.0602 7.36678 3.60934 1.02673 -0.921702 2.80516
87 3 21.4806 5.53162 1.52624 -2.80121 1.94719 -0.5523
144 1 19.6991 7.34655 1.649 -1.44252 2.66216 -1.27582
982 2 19.7359 5.38393 3.50547 -0.499392 1.58829 1.51706
1045 3 21.5415 7.17485 3.46751 2.84461 -4.58831 2.91463
141 1 17.9828 7.24754 -0.0101678 -1.15414 -0.619536 1.45859
91 3 25.0179 5.40937 1.62213 2.70131 1.48238 2.87581
148 3 23.3088 7.15068 1.53515 -1.32227 -0.0335744 2.20005
986 3 23.2511 5.44254 3.45228 0.405106 -1.37851 2.04886
1049 3 25.0006 7.15324 3.29658 3.67776 -2.07293 -0.660411
152 3 26.7057 7.28664 1.6306 2.22171 -11.1842 -0.215508
990 2 26.6539 5.36386 3.42707 -0.69256 1.4542 2.464
1022 3 1.76644 8.95617 3.52593 1.36429 1.13589 -6.65237
127 2 3.67757 9.00816 1.85258 -1.892 -2.77589 2.94693
184 2 1.78903 10.82 1.66954 2.16045 0.907091 3.59445
187 2 3.50384 12.7644 1.90883 -1.59773 4.08984 -2.86023
1082 1 1.7274 12.5501 3.5639 -3.16767 1.92956 -3.73543
1085 1 3.41239 10.721 3.54846 0.500403 3.60146 -1.97264
122 3 1.8394 9.12693 0.00557549 0.294625 2.51967 -1.32574
182 1 1.7294 12.6281 0.0505967 2.10599 -5.90265 -0.144824
185 1 3.61489 10.9588 0.182514 1.50951 1.54131 -1.01641
123 1 0.0474915 9.03121 1.74181 1.9053 1.04105 -1.0374
183 1 -0.0336145 12.7163 1.86057 0.728791 -6.52609 2.71972
131 2 6.91809 8.96477 1.80501 2.15955 2.48287 -1.56672
1026 1 5.4084 8.98832 3.59319 0.586806 1.60463 1.54301
188 2 5.2788 10.8979 1.8177 2.74309 4.05459 -2.07397
191 1 7.05682 12.5252 1.77986 -2.2244 -0.0216042 -3.04016
1086 2 5.31378 12.5704 3.57592 2.30929 3.25302 2.1729
1089 1 7.3334 10.7576 3.50509 0.759066 0.851364 3.66818
189 2 7.27678 11.0208 0.0350757 -0.172531 1.04824 4.778
126 1 5.32489 9.21741 -0.0464603 -0.10596 -0.425602 0.981191
1034 2 12.5599 9.22912 3.53089 -4.30753 1.9513 -1.35775
135 1 10.8616 9.14495 1.72107 -5.91809 2.42365 0.970148
1030 3 8.92592 9.00535 3.58835 -1.84815 -3.93555 -1.95906
190 1 8.98408 12.713 -0.028598 0.174172 0.683153 -2.60045
192 2 9.01104 10.7367 1.89978 -0.255645 1.47827 1.1806
1090 2 9.00481 12.6478 3.45759 0.212742 2.25095 2.26633
195 1 10.6774 12.5908 1.82302 1.62861 -0.421812 -0.735677
196 3 12.6437 10.9459 1.8023 0.0901047 -1.89611 -2.02516
1093 1 10.7703 10.9747 3.47851 -1.82524 -1.21676 3.99649
1094 2 12.4519 12.607 3.65468 -1.48911 -1.40767 -1.15698
134 2 12.4343 9.16636 0.0297394 -0.813793 -3.13966 -2.11883
194 3 12.4041 12.6024 -0.0422816 -0.433738 -1.33032 0.565056
193 2 10.6765 10.9342 -0.0237857 -4.63177 1.07883 1.88833
139 1 14.2978 9.08087 1.87468 3.46863 -3.40865 0.203557
199 3 14.3333 12.5662 1.75622 2.01413 4.61421 -5.61618
200 1 16.2841 10.8384 1.78069 -7.85622 -3.98776 -0.498784
1097 3 14.3951 10.8976 3.64755 2.95307 5.0931 -1.95815
1098 2 16.1223 12.5749 3.57225 -0.158396 -0.769628 4.47376
198 3 16.1668 12.6702 0.0690333 -4.00294 -0.354663 1.53784
138 2 16.265 9.08433 0.020095 2.99955 -2.64295 -0.260184
201 2 17.7487 10.8227 0.0378442 3.12445 -0.16701 -0.55838
1101 1 17.7978 10.7398 3.62389 0.0397514 -0.828423 -3.49168
203 3 17.8774 12.6223 1.88432 1.1152 1.72486 -4.55336
147 2 21.3075 9.04693 1.63112 -1.43493 -1.69153 -1.20568
143 2 18.0971 9.09718 1.73148 1.51231 -4.19202 -1.59205
1042 1 19.895 8.94963 3.48201 0.525537 1.5861 -2.50777
204 3 19.6263 10.9243 1.86023 -2.25843 -1.06618 -0.847667
207 1 21.5448 12.5293 1.67787 -0.543212 1.64993 0.225616
1102 2 19.7398 12.6436 3.5811 4.03433 2.199 6.38875
1105 1 21.58 10.7264 3.33528 3.03761 1.80046 -3.38906
205 2 21.3774 10.7822 -0.0291278 0.701206 -3.13075 1.44792
1046 3 23.1598 8.90295 3.27472 3.44927 2.91788 -1.81552
151 3 24.9285 8.92814 1.50862 -0.856022 -1.97794 -1.76259
208 1 23.2139 10.8111 1.7465 2.82304 0.360397 3.04738
211 1 25.0538 12.5261 1.52718 6.58204 0.33235 1.40247
1106 2 23.1577 12.6142 3.5026 -2.46516 -1.87571 -2.65067
1109 2 25.0037 10.8208 3.31903 -4.73504 -0.0639154 -2.40601
146 3 23.0349 8.95044 -0.024409 -0.685382 -0.223767 -0.246912
1050 2 26.7126 9.21323 3.37539 -4.18034 -0.595591 2.73025
244 2 1.69387 14.4157 1.89954 -3.35951 -0.370181 1.39638
247 2 3.55874 16.1143 1.81588 -3.58272 3.58424 1.4016
1142 1 1.68513 16.0895 3.53893 0.389972 0.363347 -1.65858
1145 1 3.55483 14.3043 3.56781 3.023 -1.13648 1.91896
1141 2 -0.0563049 14.3028 3.53448 -4.30923 0.437065 -1.26345
242 3 1.74991 16.2188 0.0354488 -5.62206 -2.95944 2.03442
245 3 3.58669 14.4998 0.0300331 -2.1263 -4.26726 4.85902
248 1 5.49042 14.4144 1.74943 -7.15166 -0.771796 -0.761208
251 1 7.14899 16.1515 1.67869 0.916622 -2.1094 1.20621
1146 2 5.3099 16.0802 3.46857 1.13214 0.964497 6.26489
1149 2 7.20033 14.3935 3.47487 -1.13351 0.47253 -1.7256
246 2 5.38 16.1862 0.0096344 -1.20434 1.47293 0.0256694
1150 2 9.02926 16.027 3.60123 -0.969137 -2.93848 -2.19863
252 2 9.04316 14.3444 1.76753 -0.429495 0.773498 -2.05441
255 3 10.6766 16.0847 1.749 -0.171471 -1.3548 -0.659318
256 3 12.5621 14.3005 1.79359 2.3337 0.761902 2.99596
1153 1 10.7632 14.4545 3.75469 -5.82921 0.297519 0.662962
1154 2 12.5935 16.2106 3.62817 1.13705 0.100859 1.3616
254 3 12.5845 16.2414 -0.030873 0.887497 -4.16754 -0.62244
259 3 14.4496 16.161 1.87348 1.40144 2.34664 -4.88681
260 3 16.0752 14.3223 1.79829 1.47069 -0.0650709 -2.83737
1157 1 14.3301 14.4187 3.72857 2.46215 1.78171 -0.489736
1158 2 16.0899 16.1351 3.5925 -1.05653 2.81473 5.19831
258 3 16.0877 16.1074 0.0123189 0.0834591 3.14828 1.89621
263 3 17.9537 16.2707 1.68629 1.47577 -0.225191 0.309118
1161 3 17.9572 14.3897 3.57301 0.566751 -3.53595 -1.93473
264 2 19.5968 14.26 1.6144 2.74642 3.22461 -4.82326
267 2 21.4916 16.0598 1.67049 -0.885267 1.50488 -4.92801
1162 1 19.7826 16.091 3.4489 -1.83806 0.345139 -2.30291
1165 1 21.4929 14.3163 3.59998 -0.861618 0.64315 -1.3243
261 2 17.8905 14.4263 0.0604114 -0.916655 -1.85149 -1.76597
268 2 23.235 14.3891 1.66194 1.95409 -1.29826 -4.51092
271 1 24.9142 16.2198 1.66649 -0.796357 1.93108 0.357627
1166 2 23.3344 15.9869 3.59593 -1.41922 -3.15346 0.207915
1169 1 25.0519 14.2552 3.33879 -2.60875 0.0330576 -0.0872397
272 2 26.6687 14.3424 1.63265 -4.36865 -3.01678 -0.160299
303 3 -0.0456828 19.7874 1.7654 1.8754 -1.71864 3.88234
1205 3 3.39408 17.9417 3.67951 2.85992 0.740761 -1.19208
1261 1 0.00231485 21.4624 3.64687 0.0757463 1.84191 -2.20919
304 3 1.65169 17.9519 1.76422 1.20287 -1.06877 -1.39558
307 3 3.52819 19.7388 1.85447 -2.82123 -3.71409 -0.628736
364 2 1.71011 21.4479 1.81058 -6.16512 3.37742 -3.22173
1202 3 1.705 19.6949 3.5055 1.0205 2.03143 -0.334989
1265 1 3.59001 21.4848 3.49433 0.0791422 5.35001 1.60752
305 3 3.552 17.9219 -0.0511063 0.984906 1.6155 0.231085
302 3 1.77026 19.5975 0.127549 -4.99492 0.872906 0.286059
308 1 5.38485 17.9217 1.72298 2.12698 0.655726 -1.80191
1209 1 7.16086 17.8785 3.50426 1.0234 1.02584 -4.76148
311 1 7.00513 19.7064 1.79848 2.79776 0.0507439 7.64443
368 2 5.30497 21.4562 1.8154 1.73669 -3.58504 -3.16639
1206 2 5.36465 19.6664 3.48918 0.378372 -0.013889 -1.14634
1269 1 6.99758 21.6574 3.56084 -5.87914 -2.37649 -1.83336
372 2 8.8337 21.5982 1.85749 -1.49257 -3.08087 1.6923
1210 2 8.74226 19.7424 3.49961 -0.468084 2.70315 0.681728
369 2 7.11893 21.5631 0.0375791 0.606418 -2.42156 1.21614
310 1 8.84659 19.6676 0.0957464 -2.17504 0.293724 -2.58985
312 2 8.89377 17.8377 1.70315 -2.05888 1.4779 0.767278
316 2 12.5945 17.9466 1.9339 -0.55097 -2.1666 -0.0267212
1213 1 10.6242 18.0289 3.58661 -3.40441 2.23092 3.51266
315 1 10.6198 19.6456 1.8003 -2.14768 -1.85558 -0.959419
376 2 12.5007 21.6038 1.70648 -5.80216 -1.02908 -0.422139
1214 2 12.5147 19.87 3.50177 3.45583 0.132619 2.97965
1273 1 10.5623 21.4399 3.37562 2.57752 -2.94664 -0.127787
314 1 12.6855 19.6986 0.0632331 0.223558 1.01105 1.11689
1217 1 14.454 18.0585 3.65263 -1.82279 1.75317 1.63058
320 3 16.1975 17.9144 1.7051 -0.467357 -0.807841 -5.93598
319 1 14.3319 19.7184 1.7991 1.1163 -0.978816 2.67705
380 3 16.0409 21.5146 1.63579 -2.96968 -3.8787 -1.34225
1218 2 16.1557 19.8627 3.49391 6.2263 -3.76294 2.61589
1277 1 14.3704 21.6136 3.53382 5.46843 6.17847 -2.80086
318 3 16.2761 19.8074 0.057751 -2.06401 2.46791 0.944115
1281 2 17.9063 21.5702 3.58183 0.555036 1.46713 3.10943
324 2 19.7112 17.8282 1.78726 1.28099 -2.47783 0.417968
323 3 17.9735 19.539 1.931 5.11261 0.562385 -1.66026
1225 1 21.6306 17.8801 3.58646 0.426397 0.787894 1.88078
1221 1 18.0992 18.0759 3.7692 1.78394 -1.03866 -1.13035
327 3 21.5452 19.5744 1.58014 -3.38391 -1.89183 0.492115
384 3 19.699 21.5184 1.88224 -0.571232 0.636114 0.21718
1222 3 19.832 19.897 3.49715 0.435953 1.34459 1.55007
1285 3 21.529 21.4429 3.55479 -2.4895 -1.98624 -0.903022
385 3 21.3462 21.4691 -0.0132559 -2.25456 -1.01089 -2.76454
328 2 23.1129 17.8745 1.75343 3.26264 -1.42535 1.81669
1229 2 24.9426 18.0631 3.49602 1.23017 2.86534 -2.62339
331 3 24.9538 19.6372 1.7163 -1.25547 -2.25007 -1.3373
388 3 23.1598 21.5455 1.67686 -0.346903 -3.18485 -0.160184
1226 3 23.27 19.7149 3.46967 3.58954 -3.02823 -1.61366
1289 3 24.9616 21.34 3.6013 -3.32048 2.38662 3.90768
367 2 3.46472 23.1913 1.76472 0.578522 1.09884 1.08432
424 2 1.82356 25.0838 1.66715 7.49042 -1.17169 -0.930285
1262 1 1.87918 23.1817 3.4833 -0.854987 -2.53676 0.88652
1325 1 3.41227 24.8898 3.45862 1.68481 0.704272 1.13333
362 1 1.74695 23.2656 -0.040448 -0.948386 1.79618 -1.30216
363 1 0.0634192 23.1502 1.72891 -0.403185 -2.61566 -2.00676
427 1 3.50539 26.7079 1.66349 -2.96172 -0.497398 0.168742
1321 2 0.120056 25.036 3.62586 6.06636 -1.0079 2.69914
1326 3 5.21788 26.7367 3.5264 -0.686261 0.23243 -2.53304
431 1 6.98235 26.6999 1.51863 1.35661 5.71841 -1.25429
371 1 7.00967 23.3413 1.80578 -2.04985 -1.52843 -3.72953
428 2 5.33422 24.9568 1.65464 0.203967 -2.94893 1.37209
1266 3 5.31612 23.3151 3.68729 -3.31421 -3.51486 1.2721
1329 3 7.10132 25.1466 3.55485 1.12396 -3.53767 2.78278
1270 2 8.77474 23.4203 3.53254 -3.67528 5.42275 0.750061
429 2 7.24248 25.0841 -0.0125636 2.83454 3.29919 1.205
432 2 8.92081 25.0515 1.7506 3.3655 -0.913732 -4.66286
435 1 10.8064 26.6546 1.73491 3.52985 2.23637 -0.839115
375 1 10.6086 23.3062 1.7599 2.31996 2.58224 -0.46534
436 2 12.4302 24.9372 1.65883 -2.58884 0.503743 2.1723
1274 2 12.5377 23.2314 3.4908 2.05882 -4.23751 1.88766
1333 1 10.7595 25.0629 3.54392 0.645566 -0.757497 -0.654135
379 1 14.3556 23.2725 1.75564 3.83524 0.375667 -4.10475
440 2 16.1025 25.0574 1.71908 2.34296 3.99536 -3.99795
1278 2 16.1832 23.3119 3.52815 -4.70234 -1.0045 1.55342
1337 1 14.4316 25.0859 3.5031 6.26682 2.08997 0.104302
378 3 16.3104 23.2821 0.0473261 1.21124 2.67584 -0.797988
439 1 14.2641 26.7355 1.68581 2.41575 2.10843 5.03999
437 3 14.4279 24.9834 -0.0102948 -0.496118 1.58368 2.04059
1342 1 19.7162 26.7668 3.53692 -0.721904 5.12986 -1.311
383 1 18.0094 23.246 1.5772 -0.741236 0.526907 -2.51499
1341 1 17.9067 25.1207 3.55847 -4.74543 -1.69926 2.87855
387 3 21.4952 23.1907 1.70821 -2.25232 2.50483 -0.300758
444 1 19.7493 25.0472 1.73972 5.33936 -0.525139 2.28195
1282 2 19.7088 23.2309 3.66562 -2.45755 1.74533 5.04116
1345 3 21.5401 25.113 3.57457 3.03527 0.222329 3.44681
382 2 19.6185 23.3591 -0.0447901 -1.23883 -0.650389 -2.02685
445 3 21.4955 25.1666 -0.0111722 1.8259 -3.17994 1.91958
391 3 25.0822 23.2381 1.77542 -0.402288 -0.708356 1.39372
448 2 23.3878 25.0909 1.64305 -2.56849 -1.43817 2.71958
1286 3 23.3319 23.4727 3.39873 3.66096 1.46159 -0.554175
1349 2 25.0599 25.1467 3.52356 -1.40508 -2.92193 -0.109509
452 2 26.705 24.9122 1.65635 1.01825 1.36853 -3.0288
904 1 1.56237 0.0407281 5.09796 -0.99489 -2.41979 -2.2118
907 3 3.5 1.69918 5.27129 -2.316 -0.266876 -3.45606
964 3 1.84736 3.58012 5.32456 -0.73997 0.294856 -2.2143
1802 2 1.74125 1.83532 7.09136 -0.493338 2.25325 -3.36338
1865 3 3.35559 3.73133 7.12265 4.07754 1.78299 2.90731
1805 1 3.48488 -0.0367979 7.04235 -0.574787 -5.17135 -0.968719
1801 2 0.0754982 0.0153159 7.04662 -0.100135 -2.00078 -0.839147
1804 1 1.80995 0.0769892 8.70511 -4.95874 1.54393 -2.60066
903 1 -0.0320861 1.87367 5.33814 0.612071 -0.625091 -3.08706
1809 2 7.25018 0.241972 7.16637 2.0775 2.69765 -0.00888341
911 1 7.09921 1.9082 5.35428 3.80707 -2.38356 -2.07324
968 3 5.28235 3.6326 5.42355 0.00673031 1.67375 -2.0035
1806 3 5.19617 1.88281 7.0912 -1.75193 3.58083 0.811369
1869 2 7.17688 3.60758 7.20755 0.758082 -2.41356 -0.503003
1811 1 7.12125 1.88218 8.79719 -5.56248 1.88648 2.54757
1808 2 5.31855 0.219642 8.86401 -0.594166 -1.8266 0.225325
908 2 5.43992 0.0727064 5.39652 -4.67576 3.89988 -0.0586162
972 3 8.90903 3.60858 5.46467 -0.849825 -0.118291 -2.0573
912 2 8.9496 0.157117 5.2737 2.02009 0.471548 -2.58394
1810 1 8.9227 1.74649 7.16345 2.19805 -0.369766 -3.18977
916 2 12.5307 0.0618931 5.26837 2.10208 2.22316 1.90066
915 2 10.7194 1.87486 5.22052 3.26787 -1.2965 1.29961
976 2 12.5024 3.59591 5.15407 0.329628 1.37914 0.256147
1814 1 12.5114 1.88391 7.03075 -5.08165 0.360508 0.782281
1873 3 10.7359 3.57738 6.95099 -2.04653 4.58342 0.953864
1813 1 10.8645 0.0515754 7.07043 0.489322 1.44845 -0.905408
1876 2 12.4244 3.55362 8.72597 2.24313 3.27705 1.62764
920 1 16.0208 -0.0369539 5.31156 1.87392 -4.11008 1.69071
919 1 14.4365 1.93575 5.1803 0.36982 4.78875 -2.4139
980 1 16.1309 3.6183 5.34086 2.52837 0.987728 -1.08016
1818 2 16.1288 1.73095 7.04359 -3.34374 -1.39752 -4.12788
1877 2 14.2446 3.41489 7.05767 -0.0468149 -0.89144 -1.81112
1817 2 14.4005 0.036084 7.0304 0.134442 -0.532933 -1.35725
1880 1 16.0326 3.64174 8.78049 2.59996 -1.54462 -6.66899
1819 1 14.3368 1.79186 8.87755 -0.841665 -1.97393 -3.80037
1881 2 18.0137 3.92498 7.07861 2.73843 -4.25831 0.590384
1823 3 18.0083 1.81346 8.80052 0.533504 -2.11818 -2.10835
923 2 18.0709 1.9291 5.44094 2.19188 -0.829649 -1.38997
927 3 21.6059 2.01805 5.22429 2.16647 -1.07974 4.98453
984 1 19.8597 3.67455 5.23833 -0.67514 0.901418 2.8697
1822 1 19.7243 1.98893 7.01072 3.84899 -4.00293 -5.32737
1885 2 21.7026 3.66506 7.02967 -1.29038 3.65752 1.61637
924 1 19.7437 0.021069 5.26746 1.77606 -1.19879 -2.32717
1821 3 17.8863 0.00812211 7.04914 0.651082 -4.49452 3.33737
1824 3 19.5754 -0.050662 8.8117 0.529596 -3.7508 3.49863
1827 3 21.5703 1.87089 8.74975 4.92523 1.80045 2.94186
1884 1 19.9003 3.79675 8.80258 1.2964 -0.578476 0.682552
1825 2 21.498 0.0831766 6.88873 -0.744296 1.36565 2.07707
1829 2 25.03 0.00293508 6.93277 4.50178 -0.221443 1.00797
928 1 23.244 -0.0446903 5.21123 1.50303 0.114434 0.728003
931 3 25.0677 1.80655 5.20519 -2.14097 -0.579644 -0.47041
988 2 23.2519 3.68319 5.39041 4.14337 -0.973204 3.12861
1826 1 23.2148 1.85765 7.01663 -2.24677 -5.04936 -0.176271
1889 3 25.1234 3.47713 6.97172 2.38348 6.31059 -2.32444
1831 1 25.1242 1.81299 8.74754 -2.52481 -3.22585 1.34273
1892 2 26.7405 3.6832 8.79907 -5.9993 -2.28791 -2.21053
963 3 -0.00397511 5.26844 5.22372 2.03796 -1.35228 1.40393
967 3 3.5468 5.47203 5.30919 -4.19389 1.92144 4.52787
1024 3 1.74228 7.16259 5.35851 4.30883 -3.28091 0.152829
1862 3 1.91099 5.4103 7.11328 3.11483 1.66622 -0.333709
1925 3 3.63554 7.19465 7.21616 2.95785 -2.99282 -4.97019
1921 3 0.0170863 7.07149 7.02409 0.685935 -0.215582 5.9961
1924 3 1.94197 7.05453 8.88696 0.70224 -3.29591 1.327
971 3 7.11783 5.21537 5.46749 -0.0355491 -3.6135 -2.02465
1028 3 5.34402 7.15781 5.4587 -0.0243385 -3.13214 -4.11358
1866 3 5.39984 5.35174 7.24738 0.731068 -2.79476 -0.153677
1929 3 7.0329 7.18962 7.04122 -0.262451 2.16108 2.67159
1870 3 8.85139 5.41766 7.18552 2.81201 0.337632 0.636721
1032 3 8.80562 7.17512 5.34966 0.771008 -2.70505 -3.20413
1932 3 8.87476 7.2248 8.74772 0.324991 2.12073 2.11297
975 3 10.6619 5.47465 5.40758 4.29864 -1.11571 -1.44687
1036 3 12.5819 7.32096 5.28198 -0.495813 -1.94147 -0.946986
1874 3 12.5833 5.39953 6.96865 -0.845216 3.74743 -0.257275
1933 3 10.6982 7.20741 6.9479 1.59275 1.15722 -2.23234
1936 2 12.5452 7.24486 8.74605 -1.86203 5.78218 2.18173
979 3 14.3643 5.34693 5.30487 -2.63906 -0.383501 0.901446
1040 1 16.2155 7.28468 5.36814 1.7645 1.26455 -1.46618
1878 2 16.1587 5.42769 7.21139 2.62393 -0.853414 -1.95366
1937 1 14.4558 7.20259 7.09828 1.46854 1.58693 5.13135
1879 1 14.2776 5.32958 8.84527 -1.57305 1.10527 1.48148
1938 2 16.1068 8.84227 7.1533 -1.82973 -0.395449 -0.614411
1941 1 18.1151 7.08874 6.96894 4.88448 -3.62921 1.93595
983 1 17.9394 5.3674 5.30276 -1.48457 -0.66372 0.736295
987 1 21.4346 5.35702 5.31767 0.781442 -0.986011 2.03956
1044 2 19.8597 7.25242 5.27237 1.73304 0.923936 1.2882
1882 2 19.7433 5.41219 7.04713 -0.781513 0.902611 1.88294
1945 1 21.5693 7.24902 6.95322 -0.766645 2.88193 -1.32744
1944 2 19.8224 7.17978 8.7564 -2.61966 1.66498 3.8151
1883 1 17.9187 5.38272 8.85167 -2.84303 -0.0725785 2.37375
1887 1 21.5026 5.46973 8.82642 -1.00156 3.76982 -3.34907
1942 3 19.7487 8.86442 7.17364 -2.27709 -3.99057 -0.157439
991 3 25.0071 5.45522 5.30193 3.75491 2.95469 -0.855747
1048 2 23.3664 7.14875 5.28742 -1.51435 -1.39139 -0.594546
1886 1 23.3768 5.41782 7.10818 -2.47459 3.45186 0.716347
1949 2 25.0703 7.33596 7.05576 -0.930196 -0.484304 -0.441175
1891 1 25.1038 5.45649 8.79567 0.0274252 -1.21851 -0.128302
1052 3 26.6416 7.21785 5.13551 -0.818134 0.528713 0.60917
1922 3 1.82345 8.90146 7.06064 -1.3391 2.15034 -1.98991
1981 3 -1.01587e-05 10.7997 7.14648 3.0922 0.663461 1.89453
1027 3 3.56023 9.02346 5.39327 -4.25073 1.22462 1.39879
1084 2 1.64848 10.7013 5.41073 -3.36206 -3.56169 0.0752566
1087 1 3.49333 12.3488 5.32109 0.441672 -0.567339 5.04243
1982 3 1.74897 12.4803 7.25763 -3.35578 -3.82194 0.484613
1985 3 3.61695 10.5996 7.20361 2.1579 2.78025 1.67078
1987 3 3.61312 12.6172 8.83159 0.0890242 5.43332 -0.260096
1923 3 -0.0304519 9.02324 8.86805 4.27665 -3.57451 -3.07753
1031 3 7.10121 9.02543 5.38917 -1.84983 -0.40067 -1.28573
1926 3 5.37594 8.9704 7.23567 2.75886 1.55789 1.83198
1088 2 5.35978 10.7203 5.27042 1.91383 -1.13739 -1.88013
1091 1 7.09081 12.5883 5.3027 -0.643773 -0.760215 -2.67073
1986 3 5.20296 12.7031 7.10659 -0.0434836 -1.23104 -2.33319
1989 3 7.11742 10.8451 7.04717 0.851388 0.123442 0.327955
1990 3 8.87688 12.4983 7.18081 -0.846332 -1.78436 -1.29665
1991 3 7.02656 12.4715 8.87843 -0.26891 -1.42031 1.85507
1930 3 8.90752 8.88417 6.96646 2.91474 -4.08948 -1.39671
1092 3 8.90576 10.8099 5.33703 1.00244 2.04081 -0.555655
1035 3 10.7171 9.05873 5.23046 -2.72962 0.496117 -0.181883
1934 2 12.5872 8.93585 7.04991 1.20278 1.22593 5.31824
1095 3 10.7235 12.6379 5.37683 -0.421168 0.0869602 1.49246
1096 1 12.4727 10.7777 5.54778 -2.60989 -0.155094 -0.243411
1993 3 10.7519 10.7654 7.20271 -3.46161 -2.44332 -3.2722
1994 2 12.5049 12.6031 6.99276 3.5069 2.99111 5.16739
1996 3 12.5018 10.9299 8.79219 3.42038 2.96144 0.896536
1992 3 8.95302 10.8355 8.85809 -7.12264 5.30058 4.52273
1995 3 10.6665 12.5906 8.78298 1.52186 -2.35885 2.84568
1039 1 14.3696 9.14053 5.46343 -1.97834 8.25798 3.16483
1099 3 14.349 12.5299 5.42203 -2.08277 -0.58463 4.61889
1100 1 16.1668 10.7821 5.44824 5.06757 -1.37248 -4.00037
1997 2 14.4285 10.7243 7.20352 -3.72555 -6.37748 -2.2392
1998 2 16.1959 12.7866 7.05321 -3.23116 -2.56776 0.202365
1999 1 14.3444 12.5476 8.71649 -2.42112 -3.27872 -1.31202
2000 3 16.2752 10.8276 8.73556 -5.16725 -0.649702 -3.721
2001 2 17.8519 10.8333 6.94762 3.44933 -2.18475 0.775792
1043 2 17.9861 8.92782 5.42914 -2.61393 -0.42206 -3.46178
1103 1 18.0571 12.5597 5.31856 -0.05473 1.19845 -1.48689
1047 2 21.5267 8.89607 5.29548 -1.31918 0.324619 -0.628221
1104 3 19.8169 10.7449 5.28167 -1.56267 -2.08557 3.18733
1107 2 21.4684 12.3785 5.20836 4.11996 1.24609 -0.252698
2002 3 19.7908 12.4917 7.07273 -2.42839 1.98014 -0.177923
2005 3 21.4659 10.768 7.12112 -0.159883 1.40338 -2.62181
2004 3 19.6137 10.8319 8.83607 0.0619954 -1.65837 2.3695
2010 1 26.6398 12.4918 7.02987 2.56868 -4.18667 0.649641
1946 3 23.2973 9.10365 7.15247 0.601813 2.17225 -3.60506
1051 1 24.9474 8.94115 4.95993 0.793633 -1.30274 -0.552463
1108 1 23.1943 10.6458 5.30384 -4.26451 -2.39174 5.33102
1111 1 25.0178 12.4715 5.18764 -0.0350457 1.12415 -0.2872
2006 3 23.3153 12.5417 7.19239 2.44165 1.20107 -3.61769
2009 2 25.0278 10.7444 6.99955 0.947338 -0.35256 4.5517
1112 1 26.7366 10.7985 5.23781 2.78435 1.33243 2.02542
1951 1 25.0511 9.09576 8.84966 0.0478307 0.017666 -0.13569
1950 1 26.7166 8.99204 6.9036 -3.08313 -2.93769 1.69604
2008 3 23.2037 10.8602 8.88004 0.975276 -2.10994 -1.45296
1144 2 1.64992 14.2412 5.3462 0.287184 0.756337 0.712454
1147 1 3.63277 16.1581 5.2939 0.343324 -0.440535 -1.32015
2042 1 1.62156 15.9966 7.20686 -0.886039 -4.3655 -0.62028
2045 2 3.43673 14.4251 6.92206 -4.15325 -3.1149 -2.58155
1204 2 1.62249 17.629 5.48249 0.540365 1.9999 -1.10351
1148 1 5.33713 14.2269 5.41486 1.66706 -2.72146 1.57476
1151 2 6.96355 16.2202 5.14467 4.44184 3.95925 -1.06372
2046 1 5.37401 16.1133 7.17395 1.5486 -4.32991 2.80653
2049 2 7.12311 14.4135 7.07668 0.562704 4.24942 -6.79448
2051 1 7.31409 16.184 8.72528 -0.59099 5.45342 -3.0412
1152 1 8.88155 14.4637 5.24487 0.183345 -1.09416 1.69379
2050 1 9.0452 16.1544 7.08018 -4.023 0.395469 3.74824
1155 2 10.6482 16.1324 5.4837 -1.7112 -3.69343 0.356237
1156 1 12.7453 14.4237 5.41401 2.831 3.87372 1.82966
2053 3 10.5641 14.158 7.03166 -2.28092 -3.30459 2.41121
2054 1 12.4862 16.1465 7.20716 -2.8622 -0.508576 -0.121929
2056 3 12.5707 14.334 8.8112 2.44937 2.92429 -1.70695
2055 2 10.6227 16.1495 8.67116 -4.63387 2.153 0.233861
2052 3 8.977 14.2652 8.80504 0.251366 2.22245 -0.13503
1159 2 14.2556 16.2633 5.31351 -2.67008 -0.302157 -1.05075
1160 2 16.1356 14.4054 5.36181 -2.38837 -0.541698 -1.39464
2057 1 14.4167 14.3293 7.12854 0.111919 -0.945436 -5.00609
2058 1 16.3747 16.2057 7.03511 1.57923 0.743442 1.56747
2059 2 14.3366 16.2351 8.79546 0.078833 -0.558481 -0.577501
2060 2 16.2262 14.4637 8.87117 4.92647 -4.80013 -3.95007
2061 1 17.975 14.3262 7.04246 -0.166868 0.232319 0.0095992
1163 3 18.1202 16.2659 5.31085 -2.20593 -0.60868 5.22048
1164 2 19.8743 14.4178 5.36644 -4.40672 0.531193 4.02128
1167 2 21.541 16.245 5.42929 0.743496 3.00649 4.33596
2062 2 19.6689 16.0568 7.26577 1.01243 0.222919 -4.31541
2065 1 21.6764 14.3667 7.13804 0.386967 0.111199 -0.0517369
2067 1 21.4661 16.0982 8.80837 2.13632 -5.21241 0.0229766
2125 1 21.3996 17.768 7.07677 -0.173513 -2.06576 2.33042
2064 2 19.7651 14.3589 8.8403 -0.939937 -3.29409 -1.58798
1172 2 26.74 14.3195 5.08041 2.56571 -1.91644 -0.8065
1168 1 23.2231 14.2339 5.33548 -0.538032 2.31783 5.2213
1171 3 25.0615 16.1228 5.1139 -0.55728 -2.38226 2.89728
2066 2 23.5324 16.102 6.91502 -0.229562 -1.23894 3.1256
2069 2 25.1166 14.2611 7.24533 3.71419 -1.72315 2.19377
2070 1 26.6964 16.1671 7.10528 1.24596 0.281062 -0.100416
2105 2 3.37422 17.909 7.14899 -0.82303 0.80224 0.275741
1207 1 3.35025 19.6299 5.23618 2.21428 0.209138 -2.9751
1264 2 1.76954 21.4124 5.20952 -0.992763 2.13884 0.861377
2102 1 1.68165 19.7617 7.05498 -2.38141 3.23302 5.07471
2165 3 3.53336 21.5265 7.06581 1.88379 0.0114094 2.05613
2104 1 1.46146 18.0287 8.87218 0.437915 -4.31464 4.45836
2109 2 6.90504 17.9009 7.07537 2.81942 0.797742 0.669311
1208 3 5.26712 18.0188 5.28404 1.53897 -0.405815 4.25718
1211 2 7.18733 19.653 5.46374 -1.25131 1.41536 2.40129
1268 3 5.2912 21.3746 5.38348 -2.06924 -3.38783 1.37553
2106 1 5.14145 19.5596 7.09285 -3.50518 0.465416 -3.55549
2169 3 7.08026 21.4757 7.11663 -4.79529 -0.650225 0.697612
2111 2 7.12975 19.6929 8.81706 -3.78715 -2.88651 0.911003
1272 1 8.8718 21.6011 5.23061 -0.308518 -1.57757 1.13064
2108 1 5.26155 17.8343 8.87063 -3.67429 -2.85517 2.44833
2168 3 5.31773 21.5982 8.83188 0.0610789 -0.407149 1.22485
1212 1 8.79877 17.9215 5.28657 -4.23671 0.713987 1.1365
1216 1 12.4367 17.939 5.35445 1.8859 1.02949 -2.57843
2113 2 10.6355 18.1184 7.04147 3.00291 0.124383 5.94822
2110 1 8.93513 19.7678 6.95804 -2.02202 2.2113 -1.04107
1215 2 10.6155 19.6573 5.22787 1.35212 2.00596 -1.76053
1276 1 12.4546 21.5704 5.42647 -2.40884 2.26757 -1.96408
2114 1 12.4719 19.758 7.13043 -0.531148 0.001069 1.22422
2173 2 10.5982 21.6764 7.02215 -4.22944 3.56339 -0.521244
2116 1 12.4196 18.0235 8.79139 -3.82563 -1.06629 2.28547
2176 1 12.6054 21.5931 8.8392 -1.4629 1.70215 2.17979
2112 1 8.92179 18.0393 8.71667 -3.60935 -2.15971 1.9714
2115 2 10.7673 19.8704 8.70404 -1.53358 -0.358431 0.56004
2172 1 8.93452 21.4656 8.87961 -0.788421 -3.51609 -2.42438
2117 2 14.3057 17.9665 7.20966 0.544362 6.41749 5.38467
1220 1 16.1436 17.9723 5.31612 0.93671 -0.0443222 2.89738
1219 2 14.3697 19.7256 5.35721 -1.91696 -2.80135 4.51152
1280 1 16.0881 21.4886 5.42794 -0.483069 6.05528 -3.59171
2118 1 16.1329 19.7058 7.24815 3.64106 -3.42858 8.66957
2177 2 14.2585 21.6001 7.20247 -3.26698 -0.840346 0.196187
2181 2 17.8543 21.5454 7.29905 3.52162 0.340805 -1.88571
1223 2 17.8533 19.8372 5.27269 2.3664 1.06202 -4.49754
1224 2 19.8406 17.9516 5.32765 8.98484 2.31054 0.943193
2121 2 17.9664 18.0609 7.14695 -2.22149 1.69889 2.25683
1227 2 21.6365 19.7161 5.4032 0.696908 0.0208688 5.1386
1284 1 19.6432 21.5903 5.33299 0.205438 -6.03361 -0.343526
2122 1 19.8275 19.7812 7.10819 -7.15303 1.50089 -0.533358
2185 1 21.4815 21.5221 7.09081 -2.55752 -3.96774 -3.61128
2184 2 19.7503 21.5402 8.77956 -5.07808 -5.8495 1.11994
2127 2 21.4862 19.5956 8.70303 -5.28564 3.56305 0.65098
1292 3 26.7216 21.4648 5.31108 -1.36526 1.07442 1.58367
2130 2 26.7423 19.598 7.16537 -0.24927 1.6174 -5.05012
2129 2 25.159 17.9008 7.18208 -2.36877 -0.998087 -0.949
1228 1 23.4613 17.9264 5.38622 1.39925 -1.72056 -2.30282