ITEM: TIMESTEP
66000
ITEM: NUMBER OF ATOMS
13500
ITEM: BOX BOUNDS pp pp pp
-1.1179826001976423e-01 5.3631798260011394e+01
-1.1179826001976423e-01 5.3631798260011394e+01
-1.1179826001976423e-01 5.3631798260011394e+01
ITEM: ATOMS id type x y z vx vy vz
7 2 3.31477 1.68111 1.52834 3.37754 2.27845 6.77724
64 1 1.69206 3.50079 1.60544 2.55962 0.977781 -1.01376
902 2 1.85505 1.79676 3.49389 -1.50526 -2.99174 -0.763856
965 1 3.62477 3.38818 3.44961 -3.04892 -2.18836 3.09467
65 2 3.54253 3.53847 -0.0675379 -1.06358 0.114026 1.23471
2 3 1.65276 1.59578 -0.0124138 3.18165 -3.27383 0.246568
901 3 -0.0571105 -0.0190823 3.49895 -0.464866 -3.16002 5.33717
961 1 0.0708171 3.34115 3.57255 3.25941 -4.88906 2.66215
11 2 7.14613 1.47127 1.67112 0.418402 2.32291 0.718296
68 2 5.47397 3.44889 1.90203 -0.523821 2.33883 -5.65025
906 1 5.34592 1.49292 3.39574 2.39736 0.745363 -4.05633
969 3 7.17951 3.36882 3.63163 -4.25073 -0.801825 1.60653
69 1 7.01507 3.37754 0.08105 -1.68512 -0.971372 -3.29818
6 1 5.25512 1.52927 -0.0889562 -0.475317 -1.30157 -7.98224
72 1 8.96313 3.30792 1.86239 -1.76295 1.59021 0.298841
10 1 9.08701 1.53843 0.105543 -7.03948 -3.21587 -1.80234
910 3 8.88197 1.62946 3.55276 -2.57376 4.6812 -3.44028
15 2 10.8714 1.64354 1.81526 2.66797 1.64288 -0.241918
76 3 12.4878 3.31192 1.86607 0.981271 1.09213 -3.22553
914 3 12.5735 1.67684 3.73495 3.80065 -0.304835 -0.595196
973 1 10.6043 3.11458 3.57472 0.426462 -0.0923687 -3.43325
73 1 10.6384 3.31454 0.0233203 1.93975 -2.01494 3.32302
14 3 12.5761 1.47178 0.141228 -2.1477 0.547605 -2.45409
913 3 10.885 0.0208924 3.49807 -5.03853 0.610001 -0.79389
19 2 14.4696 1.56406 1.81832 2.01358 -4.6831 -3.0234
80 3 16.0678 3.40219 2.00753 1.46548 -2.34936 -2.39353
918 2 16.221 1.45431 3.68291 -2.5447 -0.696341 -1.38152
977 1 14.4926 3.28894 3.62507 -3.33053 -6.30071 1.95613
18 3 16.1533 1.73193 -0.0207946 5.70309 0.0435698 -0.439327
77 3 14.224 3.57697 0.181275 1.38418 -1.90215 6.31258
23 3 17.7964 1.61271 1.8918 -0.906093 -0.908453 4.27084
81 2 17.8134 3.33019 0.092839 3.64767 6.29763 5.28193
981 3 17.9387 3.26285 3.7884 -1.00865 3.7841 -0.781877
27 3 21.3252 1.46669 1.8537 -2.25698 -1.24331 -0.768113
84 3 19.7199 3.23671 2.10599 3.3401 -1.0727 -3.45269
922 2 19.748 1.43541 3.76238 4.44364 -4.92176 -1.92248
985 3 21.3767 3.42425 3.70578 0.0802154 -0.7773 1.64193
85 3 21.5947 3.11086 0.0689506 1.12551 -1.60197 1.0475
22 3 19.6246 1.52056 -0.00425088 2.51989 1.55104 -1.53536
31 2 25.0877 1.55563 1.89632 2.15157 1.38504 0.504772
88 1 23.1149 3.08437 1.76302 1.24646 -0.218868 1.40013
926 3 23.1361 1.69229 3.58059 -3.03861 -0.0238185 4.31863
989 2 25.066 3.304 3.62925 -1.62141 -4.04603 -2.63673
26 3 23.259 1.55128 0.117842 3.63792 4.94698 -0.52106
89 2 25.0374 3.42132 0.105389 0.933409 0.592019 1.71961
1021 1 -0.0208916 7.00937 3.65056 -3.0966 0.246752 0.707912
67 1 3.61327 5.27107 1.85283 -1.71806 -0.521803 3.84704
124 2 1.90185 7.26887 1.80829 -1.96906 4.56859 3.44255
962 2 1.81184 5.12115 3.54275 1.1913 -0.928605 1.59025
1025 1 3.43958 7.11386 3.38789 4.54591 1.25277 -5.48955
125 1 3.70362 7.11543 -0.0682838 1.13921 -0.59798 2.26691
62 2 1.76069 5.2275 0.101197 -4.41689 -1.0021 -2.51275
121 1 0.132441 7.08993 0.124441 1.37691 -5.39268 6.93666
63 2 0.131604 5.12554 1.77881 1.01181 3.72741 -5.65261
123 2 0.142813 8.82164 1.86828 1.81425 -0.16896 0.49667
71 1 6.97867 5.18634 1.79206 2.53343 -3.28075 4.91672
128 2 5.29396 7.15827 1.69023 1.11454 -4.09346 7.10897
966 2 5.28511 5.47332 3.47373 2.80412 -1.52633 2.9297
1029 1 7.21332 6.92648 3.46849 1.80756 0.165604 -7.0328
129 2 7.3415 6.95619 -0.0373611 0.519475 3.80321 4.16535
1026 3 5.48607 8.80824 3.75293 3.85308 -1.90701 -0.159298
1030 2 9.06438 8.52954 3.65925 3.3 -2.26149 1.62563
970 2 9.03468 4.99162 3.37707 2.17371 -3.10878 -4.96597
132 1 8.97363 6.93593 1.83115 -0.816269 2.94327 2.96809
75 2 10.8496 5.2255 1.73955 -4.17793 -2.1684 -0.772051
136 1 12.5247 7.21841 1.88483 -6.54105 -3.42834 0.0995466
974 2 12.4868 5.03648 3.89316 3.61943 6.8154 -2.16563
1033 1 10.8059 6.94834 3.68173 0.719576 -5.26432 -2.70107
133 2 10.5968 7.15281 0.184891 0.977795 0.693995 7.08041
1034 2 12.5761 8.66388 3.721 0.0938472 -1.29693 -3.93334
134 1 12.3975 8.74429 -0.0428006 0.74201 -1.36563 -4.60856
70 2 8.93186 4.89426 0.234073 -1.79001 2.04119 -0.80741
74 2 12.5729 5.10773 0.0622204 -9.4582 -0.0585749 -0.749441
130 3 8.87523 8.7688 -0.0171819 -4.1764 -0.0732253 -3.44654
79 2 14.3143 5.17621 2.09992 -1.63031 0.564745 4.52696
140 1 15.9889 6.66058 1.93877 3.16072 -5.27349 -0.955724
978 2 16.1708 4.99094 3.77331 5.32674 -4.46106 -2.36753
1037 1 14.2732 6.86043 3.56298 -5.82607 4.2907 3.48768
78 1 16.0987 4.99334 -0.0672596 -1.36112 -4.30976 -0.95894
137 2 14.5134 6.83978 -0.0716133 -1.47594 -1.13034 1.91038
1038 1 16.1186 8.78161 3.6013 0.81269 -0.134642 -3.55115
139 2 14.5187 8.53325 1.84688 3.97162 1.66726 5.27125
138 3 16.1041 8.80067 0.0713554 0.14239 7.55904 2.92014
1041 3 17.8209 6.88184 3.55679 0.548067 -0.564459 -1.64799
141 3 17.8973 6.83457 0.0489043 -6.4339 -4.4745 2.00229
143 3 17.8943 8.62403 1.60362 -4.52736 3.61167 -5.48467
83 3 17.9069 5.0424 1.84546 -0.103211 -0.16284 1.16797
87 3 21.5585 5.19484 1.83678 1.77518 -1.96984 -4.63459
144 3 19.6092 6.90264 1.78922 -4.63081 0.37987 -5.06567
982 3 19.6348 5.23453 3.61429 -2.04475 -1.4465 0.0526466
1045 3 21.4858 6.92057 3.58392 -2.79534 0.0262427 2.95169
145 3 21.2771 6.97337 0.151883 0.447983 -4.25802 -7.79863
82 3 19.6694 4.87757 0.251047 -1.03721 -1.60414 -3.69973
1042 3 19.549 8.73243 3.63843 0.944548 1.8084 1.38473
142 3 19.643 8.7409 -0.000161366 2.00241 -2.72257 2.07239
147 3 21.436 8.72778 1.92106 -3.72726 -7.9518 1.91965
91 1 24.9271 4.9313 1.8349 0.966028 -3.62232 2.63883
148 3 23.2457 6.98826 1.86107 0.497096 -0.0750248 3.39857
986 3 23.3586 5.23749 3.69479 -5.95691 -4.25925 -2.81582
1049 3 25.1357 6.89224 3.63487 0.703582 4.57704 -0.248419
86 3 23.3536 5.34967 -0.00245555 0.31923 1.48962 2.69477
1046 3 23.157 8.76017 3.87393 -2.3732 -0.957579 1.65767
151 1 24.9539 8.78426 1.80395 -1.89134 1.07549 3.2295
149 2 25.1443 7.2804 -0.0528075 -1.47869 0.0830654 -4.75456
1050 3 26.6795 8.7696 3.57774 -1.32387 1.4462 4.10973
990 3 26.6742 5.17367 3.61614 -3.08454 0.788371 7.09883
90 1 26.7026 5.11805 0.0107296 -6.92636 -3.68678 -1.78941
1022 3 2.0242 9.09797 3.64242 -1.46729 0.234685 -2.65476
127 2 3.5759 8.95177 1.51777 -2.87973 -0.826686 -1.06907
184 1 1.75508 10.8082 1.59411 1.49665 -3.62943 -1.8367
187 2 3.62834 12.0418 1.60721 1.91202 -2.97471 -1.51594
1082 3 1.90137 12.2741 3.45933 -1.83543 2.55543 2.95886
1085 3 3.79658 10.6112 3.56306 6.68917 -1.79364 2.17157
183 2 0.102084 12.5677 1.73122 2.94997 -2.61322 0.157561
126 1 5.45039 8.93789 -0.00449388 -2.34731 1.11636 -0.656713
131 1 7.1049 9.13108 1.72373 -1.17604 -0.342621 1.52193
188 1 5.62139 10.8289 1.79884 4.67455 7.25938 -4.91098
191 2 7.28972 12.4988 1.72748 2.49378 -1.99305 1.55428
1086 1 5.40909 12.3041 3.61873 -0.0389904 1.63003 -6.27008
1089 2 7.20826 10.7001 3.56699 8.84824 -0.0617485 6.82393
189 2 7.24882 10.5958 -0.0341588 0.558848 -0.369953 -2.73587
135 2 10.7486 8.89925 2.05946 -2.51377 1.29876 -0.878808
1090 2 9.17675 12.2779 3.47412 -3.80586 -0.0189462 0.696539
192 1 9.01496 10.4884 1.8468 2.70702 1.0963 -0.784328
195 2 10.7065 12.3851 1.54459 -5.65795 -2.1978 1.24906
196 1 12.5365 10.6941 1.79448 2.26567 4.31372 -4.15434
1093 1 10.8294 10.4107 3.83876 3.8388 3.40421 0.821311
1094 2 12.3452 12.2187 3.49026 -1.39545 -3.60414 0.267029
193 2 10.5986 10.4124 -0.0518909 -0.900526 -3.72459 -1.10001
194 3 12.6209 12.2555 -0.0368462 -1.23095 -5.80681 -3.59353
190 3 8.91469 12.39 -0.0375273 -2.77249 -0.83794 -2.42034
199 1 14.2332 12.353 1.90342 -3.25195 0.858937 -1.44532
200 3 16.216 10.6211 1.94272 -1.58689 2.522 -1.22222
1097 3 14.3328 10.4934 3.42831 0.190364 7.21286 -3.32764
1098 2 16.0833 12.2357 3.53976 -5.45625 3.21942 -2.39407
198 1 16.0769 12.1438 0.138996 2.38173 -0.577065 2.54086
197 2 14.3504 10.3678 0.00155208 -2.72786 -3.50202 3.83542
201 2 17.8076 10.4894 0.0144612 0.258859 -3.70175 1.8238
1101 3 18.0076 10.4076 3.51604 2.9814 -1.29311 -4.28961
203 1 17.8813 12.4173 1.81099 -0.0087258 -1.77515 2.27777
204 3 19.615 10.5017 1.56283 -3.13889 0.896115 1.61117
207 2 21.1683 12.4454 1.96588 0.776359 0.413733 -10.1941
1102 1 19.628 12.4195 3.54363 3.00163 2.22931 -1.45375
1105 3 21.4235 10.4764 3.66576 0.654912 -1.1762 2.41015
205 1 21.4398 10.7014 -0.0316058 1.28365 -4.79585 -0.484558
208 2 23.0842 10.6497 1.81917 2.58325 0.411748 0.655341
211 2 24.8304 12.3736 1.87693 4.68913 4.18091 4.01874
1106 1 23.1892 12.2258 3.60303 -2.15523 -1.06463 -0.0239228
1109 1 25.0805 10.4069 3.64808 -2.01208 1.36442 -7.37614
206 1 23.3013 12.431 0.183433 -2.56797 4.90751 -5.87799
209 3 24.861 10.6018 0.0521242 5.15594 -1.34694 0.981837
210 2 26.6916 12.2123 0.0136514 -2.74353 4.57509 6.12785
244 2 1.82538 14.139 1.94931 -1.95273 -2.08602 1.0979
247 2 3.74449 15.9918 1.82608 3.06589 7.89034 0.577428
1142 3 1.86116 16.1255 3.81639 3.461 -4.16993 1.43509
1145 3 3.6394 14.1852 3.71346 4.4267 -4.25942 2.41213
242 1 1.8229 16.0403 0.0934305 -0.304212 1.1029 1.66734
1141 1 -0.0986431 14.2213 3.62391 -0.321899 2.88428 2.06766
305 2 3.7103 17.7286 0.0946926 -2.87129 4.14996 -2.32853
241 1 -0.0372347 14.0466 0.0428415 -3.72966 -1.84154 -0.454207
245 1 3.662 14.1632 0.196925 0.526424 -2.00525 3.45795
1201 2 0.18735 17.7644 3.65184 -2.41819 2.30895 4.9684
243 2 0.0102603 15.9354 1.94566 4.34777 5.23459 -2.66414
304 3 1.77138 17.7372 1.80145 -2.64028 -3.27079 -4.49048
301 2 -0.0261358 17.8048 0.000509596 1.76617 1.26039 6.49728
248 2 5.27983 14.0644 1.86545 7.48266 -2.26968 -2.25438
251 2 7.19007 15.8442 1.8144 -7.00298 -1.39304 -5.79286
1146 3 5.53402 15.8842 3.67507 -0.168626 5.40901 -0.838191
1149 1 7.00665 14.0841 3.73042 -0.762643 -3.67849 -1.93773
249 1 7.12193 13.9732 0.0366205 -1.18719 -2.77847 0.751019
1209 1 7.3751 17.5945 3.65009 -0.362762 -4.17955 -5.08292
246 3 5.45888 15.8438 0.0969683 0.473704 -1.20065 1.49884
308 1 5.46771 17.7275 1.98069 2.43245 -1.20078 1.03568
250 3 8.8511 15.97 0.0980651 -7.72981 2.20333 -2.72907
1150 2 9.06048 15.895 3.73603 -1.11406 2.39685 0.691335
252 1 9.15333 14.2798 1.8724 1.38356 -0.0883036 -3.46307
255 2 10.8832 15.9336 1.78174 -5.20523 -1.26181 -1.26756
256 2 12.4076 13.8996 1.90889 2.47928 -1.29554 -0.154942
1153 1 10.8301 14.2271 3.70702 0.957743 -2.34513 3.28636
1154 1 12.6315 15.9072 3.79075 3.5811 1.43322 -0.65004
253 1 10.854 14.11 -0.0609616 -0.318081 4.42383 2.98702
313 1 10.6672 17.7121 0.0863718 4.84321 4.15304 -2.70245
312 1 9.04996 17.7333 1.96022 -2.82923 -0.28558 -1.06931
254 1 12.5259 15.9555 0.190179 -2.36835 4.68764 -2.4046
316 2 12.6394 17.7 1.97937 1.72126 4.54342 4.023
1213 1 10.8221 17.7761 3.67882 0.453656 -3.89776 1.70228
259 1 14.3531 15.8725 2.04277 -1.3223 1.21631 1.99842
260 2 16.1295 14.1834 1.78278 1.16045 0.999824 -4.90678
1157 1 14.3505 14.0937 3.62578 -0.756867 2.02495 1.34981
1158 2 16.1478 16.0256 3.63088 3.96715 -1.57655 -2.98781
257 2 14.3487 14.1626 0.0602035 0.199661 -7.55195 1.16623
317 2 14.5445 17.4711 0.106308 3.77816 1.20905 2.37244
258 1 16.3785 15.9373 0.217761 1.38753 1.32826 -6.27884
1161 1 17.7164 14.1668 3.51802 4.22536 1.59551 3.7744
320 2 16.1895 17.7265 1.67657 -0.690633 -5.26011 2.58871
1217 3 14.3615 17.786 3.6273 4.33509 -1.66819 1.10056
261 2 17.8692 14.0867 0.0102047 0.898158 -1.20743 0.315162
263 1 17.9196 16.0006 2.09078 0.866312 -6.20966 -4.79124
264 2 19.4312 14.1306 1.78738 -0.552289 0.568834 6.53184
267 1 21.4137 15.9809 2.02199 -3.74051 -0.697833 5.84014
1162 2 19.522 15.8794 3.68234 2.74597 0.319948 -1.4519
1165 1 21.3144 14.1835 3.59373 -3.20146 2.51288 0.713067
265 2 21.4466 14.0642 -0.105493 -4.12219 -2.81681 1.07885
1225 2 21.418 17.7434 3.69427 2.79477 1.9399 -1.02006
262 1 19.5826 15.9616 0.180541 -2.33638 1.5693 1.57053
321 3 17.9709 17.7184 0.00870311 4.40573 -2.53118 3.61961
1221 1 17.9143 17.6897 3.67415 -1.45072 -2.04002 0.785958
324 2 19.649 17.7678 1.75968 3.40257 -4.69879 -0.58206
268 1 22.9776 14.2084 1.81818 -2.72625 3.05553 4.77115
271 1 24.9974 16.047 1.72794 2.30073 2.47377 -5.64837
1166 2 23.3348 15.903 3.38316 0.334864 -2.07594 1.06059
1169 2 24.9168 14.1578 3.63417 3.89848 -2.83154 -4.28409
266 2 23.1519 15.8531 0.0673311 3.67688 1.45207 -2.00647
269 1 24.8849 14.148 0.135795 -0.0849067 -1.32912 -3.98133
329 3 25.004 17.653 0.00305621 1.93795 -0.93764 0.293371
332 1 26.7192 17.6925 1.90801 -0.0973514 4.65975 -0.412193
1205 2 3.69835 17.8215 3.60911 1.88742 -2.49749 1.17711
307 2 3.5443 19.4352 1.73021 -1.10195 -3.47539 -2.86194
364 2 1.56059 21.4863 1.80883 0.825837 -4.75008 -3.02477
1202 1 1.77226 19.7342 3.50791 -0.941896 -2.65527 0.785539
1265 1 3.56343 21.2485 3.52849 0.881003 2.72406 3.17482
302 1 1.77799 19.4147 -0.0402146 -0.323896 2.46192 0.90928
1261 2 0.0673307 21.3732 3.60526 0.523214 -0.67837 1.76583
303 2 -0.00304909 19.598 1.70831 -4.17048 -3.47289 0.744988
309 2 7.00162 17.8159 0.0284989 2.10014 -2.6126 0.71159
311 2 7.18734 19.2152 2.02241 2.9378 -2.50115 -3.57011
368 3 5.4599 21.1699 1.89186 2.53171 2.39188 0.140424
1206 2 5.38779 19.6104 3.68298 2.06795 5.08541 -1.10677
1269 3 7.1391 21.1656 3.62189 -1.92825 -3.98197 2.55388
369 3 7.27569 21.1769 0.046558 -3.8863 2.45291 2.65903
306 1 5.20046 19.6244 0.127383 -1.25984 1.25524 -0.194142
1210 2 9.05233 19.4562 3.74369 5.56624 0.531613 -1.67513
372 1 9.00499 21.0798 1.86686 -0.159277 0.725984 -0.19846
315 2 10.7363 19.4101 1.95925 7.1751 -3.66693 -1.76496
376 2 12.4179 20.9915 1.76882 1.07484 0.466998 -0.476846
1214 1 12.578 19.7205 3.629 -1.94732 -2.19243 -3.86539
1273 3 10.9253 21.3209 3.53234 3.38752 1.84428 -1.61709
310 1 8.88659 19.4642 0.115993 -3.62395 3.80383 -2.50898
373 2 10.6193 21.0556 0.168835 5.55847 -2.6781 0.518297
314 1 12.4367 19.3063 -0.00103622 1.15896 1.16184 -1.13659
319 1 14.2425 19.6088 1.7197 -2.67404 2.47434 -0.4957
380 3 16.2798 21.26 1.74568 -0.00727176 1.4717 -1.01367
1218 3 16.0917 19.3982 3.36167 -2.60323 -2.58476 1.80055
1277 3 14.5249 21.3634 3.46887 4.14405 1.56193 4.80354
377 2 14.46 21.2563 0.118275 0.388285 -2.44544 -2.41187
318 3 16.3221 19.5243 -0.036695 2.60849 -0.290407 -1.59029
325 3 21.5763 17.8766 0.058904 -2.81544 5.41017 -2.498
381 3 18.0376 21.4313 0.0204963 -2.40143 -0.45838 -2.80482
323 3 18.1079 19.5349 1.75386 -0.794664 0.0136649 -3.53099
1281 1 18.1709 21.4905 3.59888 -3.09203 2.85505 4.47193
327 3 21.6284 19.6042 1.94657 0.619823 -0.9967 3.3606
384 1 19.824 21.2247 1.88041 0.820333 -1.8403 2.72526
1222 1 19.6703 19.4276 3.65185 -1.2948 -0.671929 -2.71566
1285 2 21.505 21.2799 3.50351 -2.37479 2.9425 2.25403
322 3 19.7759 19.4766 -0.0592411 -0.207397 0.255787 1.72574
385 3 21.4987 21.4563 0.0712831 -1.09703 -1.32593 -4.71052
1229 2 24.9891 17.8684 3.55857 4.80745 1.60085 0.0691008
328 1 23.4 17.8238 1.85114 2.2107 -0.463569 0.0489209
331 2 25.2497 19.4685 1.63679 -4.81761 -2.17943 -0.271924
388 3 23.421 21.4567 1.54045 -1.51119 -3.50732 -1.26105
1226 1 23.3272 19.5279 3.65057 2.12412 -0.917365 -1.40083
1289 3 25.2007 21.2406 3.61247 7.93633 0.826197 -3.96813
389 1 25.1748 21.5927 0.0908178 0.180509 1.18968 -0.330435
326 3 23.279 19.5004 0.0909989 3.37138 3.04625 -0.133642
363 1 -0.0621315 23.3497 1.74603 -0.373657 -0.295215 1.21656
367 3 3.58984 22.9117 1.63163 -0.0224428 -5.80216 1.19149
424 2 1.91661 24.7269 1.94613 -0.751031 0.690482 3.94922
1262 1 1.85524 22.9869 3.59602 -3.52887 -0.30172 -3.73824
1325 3 3.58371 24.9012 3.64315 -3.31536 -1.95148 -4.82765
1321 1 -0.00178346 24.7705 3.6019 -0.676192 2.12286 2.04649
362 1 1.59182 23.0975 0.019129 0.0344096 0.617435 -1.2126
1322 1 1.64317 26.6275 3.59085 -1.34426 2.27029 4.38552
423 2 -0.0922304 26.6997 1.85908 -0.336288 5.45219 -0.378966
422 3 1.6615 26.6768 0.118597 4.61784 4.59212 1.76843
427 3 3.4629 26.5699 1.67824 4.06285 -1.50834 2.55321
425 2 3.35701 24.817 0.126411 -1.65481 -2.3464 1.45806
421 3 -0.0367995 24.9883 -0.0994801 2.72499 -2.37966 -5.32657
371 3 7.09882 23.051 1.85302 4.28704 -0.113486 3.7221
428 3 5.35824 24.7363 1.68034 4.61023 -2.57449 6.42247
1266 3 5.35213 22.9097 3.66881 1.32248 0.784633 -1.25017
1329 3 7.05616 24.8731 3.64359 3.89928 -2.33851 -3.08785
1326 3 5.38119 26.7513 3.46022 5.53172 -1.71452 0.705762
429 3 7.10705 24.7387 0.0921273 2.46998 4.82002 -3.84301
431 3 7.26662 26.5025 1.82257 -1.06372 -4.03221 3.11748
426 3 5.25666 26.4962 -0.018815 4.7121 3.51202 1.95826
366 2 5.60765 22.8556 -0.0432871 -1.07716 -2.4545 1.26666
1334 2 12.48 26.7122 3.39762 -1.50723 -6.2813 -3.65905
1330 3 9.01644 26.5007 3.54812 6.09687 0.617606 0.867098
430 3 8.98182 26.5087 0.0755481 3.06599 5.02706 2.40394
432 3 9.03576 24.6833 1.80744 -1.66013 -3.03889 -5.1691
1270 3 8.94982 22.9742 3.64574 -0.748414 -0.859548 0.581958
375 3 10.738 22.9278 1.88282 1.74276 -0.174354 -0.704516
436 1 12.5026 24.751 1.77116 0.0608018 -3.59969 -3.31864
1274 2 12.6496 23.0146 3.54895 2.22679 -4.63457 6.38425
1333 3 10.7169 24.768 3.61497 4.22305 -5.95162 4.64452
433 2 10.8267 24.7857 0.067923 -3.73817 1.26938 -1.83174
374 3 12.5012 22.8525 0.142182 0.583173 5.37657 6.10356
434 3 12.5999 26.5237 -0.0989541 2.38466 -1.96561 -11.0015
435 3 10.69 26.5737 1.86468 1.56743 -1.7204 -2.97201
379 1 14.242 23.0493 1.64281 5.37217 -1.84028 -2.64784
440 2 15.8722 25.0394 1.74047 -6.3039 3.05111 3.08385
1278 2 16.1603 23.0794 3.64475 3.75795 0.519746 -4.02964
1337 1 14.4912 24.9357 3.6363 -4.49321 2.61033 -0.227694
378 3 16.0345 23.1001 -0.0707852 3.344 1.25338 -2.57341
439 2 14.2466 26.7621 1.6362 3.5012 1.18094 1.77822
438 1 16.0591 26.7529 -0.101495 0.686848 -0.925746 0.332241
437 1 14.2421 24.6548 0.0131221 0.882689 -3.60675 3.08291
1338 1 16.2409 26.6688 3.56916 -1.86006 -4.05195 -1.7985
383 1 17.8728 23.2576 1.85627 4.09185 2.23715 -0.635229
1341 3 18.0417 24.8956 3.56976 1.40466 2.15949 1.35647
387 1 21.4981 23.3615 1.88866 2.41818 -0.372987 1.24847
444 2 19.6923 25.0256 1.89803 6.09645 0.201775 -2.89173
1282 2 19.9424 23.1978 3.73157 -0.200025 -4.73444 -0.617408
1345 1 21.7856 24.933 3.66657 0.926563 -4.26576 -4.18015
445 1 21.486 24.805 -0.0336835 -1.65323 3.09824 1.48001
442 2 19.8344 26.7221 -0.0570147 -2.57759 -1.21802 -0.965612
382 2 19.5699 23.2537 0.144116 2.01412 -2.40376 0.105432
441 1 17.9279 24.8539 0.14918 -5.33699 -4.34688 3.74462
447 3 21.5424 26.6696 1.81285 -1.65021 -2.99701 -3.08906
443 1 17.9505 26.6212 1.84991 -7.49804 -5.03676 -4.76152
391 1 25.2101 23.3085 1.77012 0.862961 -2.65501 -5.42648
448 2 23.3749 25.0434 1.97363 2.25377 1.47107 4.44803
1286 2 23.2195 23.1744 3.53555 -0.673395 -2.28098 -0.961064
1349 1 25.0595 24.9859 3.78126 2.68725 -1.57276 -5.61139
452 2 26.6046 25.2305 1.96262 4.26771 -2.47521 5.32343
451 1 25.0544 26.7221 2.05798 -5.06179 0.195589 -0.72398
907 2 3.65479 1.6499 5.35306 -3.9391 1.31866 7.92958
964 1 1.67651 3.32371 5.51952 4.35673 0.796422 -0.197683
1802 1 1.93775 1.46596 7.02597 -0.808647 2.91258 2.95473
1865 3 3.56369 3.47822 7.01348 -1.04801 2.12167 -0.907893
1861 2 -0.0171925 3.42529 7.1694 0.758153 -2.59011 4.81307
911 3 6.97068 1.54283 5.46462 -6.67644 -2.21403 0.11313
968 1 5.24069 3.28853 5.03324 0.586845 3.1418 -5.75689
1806 3 5.35239 1.83938 7.13595 -2.13199 -1.00442 3.3589
1869 3 7.07449 3.43818 7.07521 4.97034 2.36013 -7.03569
1810 3 8.79495 1.73524 7.2443 -3.59132 -3.99462 1.78766
972 3 8.90844 3.45914 5.4117 -2.18912 2.35859 1.63037
915 3 10.6398 1.4105 5.49057 -0.832301 0.571934 6.31085
976 2 12.4341 3.32658 5.37792 -1.33249 0.166984 -5.60277
1814 3 12.4304 1.59456 7.29139 2.967 -0.18517 -5.5198
1873 3 10.5138 3.33626 7.21726 3.06952 -0.09947 1.26204
919 3 14.1756 1.64886 5.56765 3.13118 2.40025 0.805548
980 3 15.986 3.33971 5.51885 0.736113 4.32345 -1.47206
1818 1 16.204 1.4697 7.35785 -1.02063 4.75779 0.726539
1877 2 14.2836 3.43138 7.34264 -2.59711 1.26718 -2.79282
923 1 17.7114 1.57717 5.47029 -2.31808 -0.182509 4.1382
1881 2 17.9453 3.43744 7.21362 -2.07841 -2.1236 1.87434
927 3 21.5428 1.48485 5.43292 5.1584 0.404101 3.39715
984 3 19.6728 3.41664 5.52076 3.85754 3.58847 -1.92037
1822 3 19.653 1.49562 7.06606 -0.173322 -0.268949 -2.23977
1885 1 21.5494 3.23889 7.2395 0.669668 -3.30876 5.0469
1827 2 21.5249 1.44438 8.84672 -2.3393 -2.44206 1.86014
1824 1 19.5724 -0.105084 8.84044 0.542395 0.373986 3.17516
931 1 25.2896 1.82427 5.7187 4.23396 -0.618725 -1.77447
988 3 23.2506 3.38301 5.29948 2.91177 1.93798 0.460414
1826 2 23.4994 1.82481 7.24755 -2.82329 0.504334 -0.663271
1889 2 25.1809 3.55789 7.40813 1.57283 1.61012 0.386205
967 3 3.43082 5.3099 5.26293 0.245659 1.30098 -0.593825
1024 2 1.49699 7.10928 5.37097 2.11535 -1.69057 -4.10505
1862 1 1.67344 5.31611 7.35211 4.57665 -2.38856 -2.00224
1925 3 3.52723 7.0515 7.11041 0.759323 6.72872 -0.0701132
1921 1 -0.0558916 6.98226 7.16858 -5.27975 2.81568 -0.936907
1027 3 3.33534 8.75832 5.42167 1.78278 -2.34978 -6.04105
963 1 0.0363207 5.17177 5.41193 0.820995 -2.10233 -1.57574
1922 3 1.54613 8.70476 7.20058 -1.06087 -1.98467 0.695492
971 3 7.09326 5.06571 5.29524 -1.63117 4.79901 0.929411
1028 3 5.29109 6.79971 5.39819 1.95781 5.29649 1.57734
1866 3 5.28881 5.22861 7.19844 -0.269688 3.93913 -0.311685
1929 3 7.08336 6.93326 7.2809 0.243023 -0.942995 -0.708427
1926 3 5.19556 8.70627 7.18018 1.75496 0.564374 -0.231621
1031 3 7.14473 8.77672 5.39022 -1.82445 -2.15892 -1.8199
1032 2 8.88529 6.95657 5.37349 1.25975 -1.21609 -3.69267
1870 3 8.85239 5.26849 7.21247 -2.17057 -1.8522 2.12135
975 1 10.6625 5.09276 5.41686 -0.0576953 -2.50453 -3.82451
1036 2 12.7094 6.90173 5.44292 -3.10569 3.23298 -0.237864
1874 1 12.6417 4.96003 7.22241 8.07518 -1.36266 -1.02479
1933 2 10.8661 6.89942 7.25336 -10.4653 3.21644 0.873305
1035 3 10.8279 8.63718 5.51786 4.54556 3.06782 4.41088
1930 2 8.94897 8.69457 7.03405 -2.29443 -5.84228 -0.774816
979 1 14.4351 5.09366 5.29005 2.96889 -3.53667 0.501798
1040 2 16.0216 7.0385 5.32424 3.16932 -1.81479 -4.55001
1878 3 16.0396 5.47442 7.3984 1.76845 -0.773002 5.04322
1937 2 14.3159 6.98365 7.20475 -2.42073 -3.09542 -0.0480369
1039 1 14.4615 8.65625 5.277 2.29289 -2.05335 -1.19367
1938 3 16.2713 8.81623 7.16274 6.55623 -4.4088 0.985989
1941 2 18.0191 6.87798 7.16133 3.95589 -2.65385 2.21617
983 1 17.8811 5.10528 5.4697 -2.28666 -2.74926 0.596482
1043 3 17.8404 8.82142 5.32442 1.7991 -1.19462 3.28844
987 2 21.4488 5.24838 5.46748 2.18806 2.81556 -0.650664
1044 1 19.4999 6.91848 5.38843 -2.03875 -1.34344 3.33397
1882 1 19.6813 5.14289 7.15125 4.22571 -3.33507 2.45746
1945 3 21.3743 7.00297 7.27255 -0.472986 1.22261 -1.97353
1942 3 19.6457 8.78344 7.21098 -0.186649 -0.58292 1.22516
1047 3 21.4198 8.54425 5.46631 -1.89826 1.81295 2.8012
991 3 25.0488 5.05893 5.55058 -2.99256 -1.67982 3.97929
1048 3 23.3293 6.94129 5.46713 -1.59621 -1.54299 4.28891
1886 1 23.1599 5.14058 7.43884 -0.351896 1.26124 -0.0497478
1949 2 25.172 6.88504 7.2504 3.59048 3.17646 -0.774532
1051 3 24.9569 8.64804 5.51173 2.12757 -0.585256 7.73848
1951 1 25.1023 8.67617 8.81004 3.18697 0.676281 -2.49365
1023 1 0.0141875 8.93246 5.35377 -0.517912 -0.487443 1.91319
1084 2 1.6076 10.7111 5.34488 1.69689 4.12286 -2.76636
1087 3 3.53652 12.3003 5.41161 1.8658 4.17477 0.3845
1982 1 1.60848 12.3119 7.22503 0.475687 -5.65669 -4.26579
1985 3 3.53272 10.4765 7.22557 -3.79845 -2.33122 3.88151
1083 1 -0.0182795 12.3109 5.14719 1.64113 -4.06053 2.61782
1088 3 5.48096 10.5365 5.48195 -3.84378 -6.44367 1.85529
1091 1 7.19302 12.4265 5.3997 -2.99257 0.19721 3.15635
1986 3 5.41529 12.4523 7.18398 -5.06023 2.04439 -3.42179
1989 3 7.13733 10.5374 7.18011 0.602272 0.139751 -4.67559
1934 1 12.7592 8.84646 7.16328 -3.49252 -3.43532 0.584873
1990 2 9.12296 12.5127 7.22613 0.366335 1.12 -1.37381
1092 1 8.87492 10.5922 5.37631 -2.00869 -0.717743 1.55413
1095 2 10.7323 12.4732 5.26608 -5.78885 0.523881 -5.4058
1096 2 12.5207 10.5605 5.39855 -1.01883 2.58451 3.00901
1993 2 10.7963 10.4766 7.29094 0.54101 -2.82587 1.19869
1994 1 12.4793 12.1832 7.03104 2.17786 -2.16802 3.71906
1992 1 9.09135 10.4321 8.79821 -0.330831 -3.51718 -1.10965
1996 1 12.8067 10.5096 8.76987 0.985043 -0.686381 0.914162
1995 1 10.9968 12.3001 8.78208 6.57607 -0.61569 -1.77924
1099 1 14.3469 12.0885 5.36384 0.093701 1.19007 6.94372
1100 1 15.9543 10.4826 5.33276 -0.517486 1.46131 0.151939
1997 2 14.371 10.5603 7.14912 1.69009 3.23474 -3.98734
1998 3 15.9886 12.4565 7.31189 -4.08212 -2.39522 2.31484
2001 2 17.7595 10.6104 7.32207 2.46065 2.76256 4.93732
1103 3 17.7388 12.2334 5.18997 3.65289 -1.62598 5.63189
1104 3 19.5413 10.5318 5.40783 1.54063 -2.05058 -3.17001
1107 2 21.4801 12.4519 5.16338 0.166753 3.40172 0.810473
2002 3 19.5982 12.2366 7.17519 0.23097 4.39365 2.06015
2005 3 21.2991 10.4934 7.09523 -1.85807 8.35733 -0.763898
1112 1 26.7476 10.5045 5.47338 -1.08436 -3.60278 3.98217
1946 2 23.0516 8.84155 7.3622 3.21285 -7.22015 4.59343
1108 3 23.0978 10.5431 5.42898 3.06537 4.09864 -0.591625
1111 1 24.9492 12.2808 5.31473 1.61023 -2.95216 2.39069
2006 2 23.304 12.0948 7.07336 3.75801 2.18125 -0.708032
2009 2 25.0297 10.4339 6.99846 0.44897 1.86065 -1.62855
1144 2 1.7362 14.191 5.3194 3.4001 -0.658548 -3.33532
1147 3 3.67742 15.7647 5.56427 2.21365 3.10191 -4.17066
2042 3 1.76116 15.9801 7.01046 -1.89112 1.75001 -0.134142
2045 3 3.49815 14.1032 7.19265 -0.930395 -1.85829 6.53099
2041 2 0.0728243 13.9598 6.98819 3.05462 3.9485 6.69225
2101 2 -0.0194112 17.805 7.35198 3.83774 3.09537 -1.57205
1143 1 -0.00916652 16.0084 5.43262 2.41191 3.14333 -3.21974
1148 2 5.42405 14.0899 5.38381 3.53524 1.14346 3.02515
1151 2 7.3462 15.9896 5.33539 3.70867 -2.07598 0.211509
2046 3 5.37647 15.7682 7.19896 2.97957 -3.39123 -0.465946
2049 3 7.33908 14.2162 7.1819 -0.853814 -9.7231 1.68319
2109 3 7.15818 17.7226 7.36839 2.41911 0.983035 2.62108
1208 3 5.35132 17.6723 5.51793 -0.76121 -1.40566 -2.42635
1212 1 8.99948 17.6245 5.83161 -2.20658 3.70899 -4.76852
2050 2 9.09129 15.9353 7.37403 6.32783 1.47781 -5.83509
1152 1 9.03856 13.9585 5.41664 -3.2844 -5.79497 -6.54928
1155 1 10.6907 15.8366 5.57269 -3.27875 -1.45771 6.15394
1156 2 12.6663 14.058 5.31678 4.01537 -2.39759 -1.30247
2053 1 10.9244 14.2353 7.13282 2.7226 2.82675 -4.14726
2054 3 12.731 16.0457 7.15165 2.16718 -2.67205 1.59403
2113 1 10.8822 17.652 7.29737 -5.56685 -0.0704446 0.463415
1159 3 14.469 16.0546 5.41174 2.46016 -1.02785 -1.85832
1160 3 15.9958 14.1539 5.35353 -4.15036 -0.0807352 0.40634
2057 3 14.2995 14.1614 7.17368 1.74298 0.36049 -0.0227922
2058 2 16.1323 16.1515 7.09241 -2.16159 1.04821 -0.00330626
1220 1 16.292 17.7588 5.17324 -0.213706 6.46876 -3.03603
1163 1 17.9202 15.8325 5.21146 2.47971 -4.22717 2.20103
2061 2 17.8038 14.2496 7.3138 -2.06194 4.21213 -1.00652
1164 3 19.5523 14.0262 5.40812 1.10513 -4.71687 1.73285
1167 2 21.4096 15.7643 5.44551 1.94815 -1.44454 -2.21392
2062 1 19.6139 15.8448 6.92562 -1.05015 3.19257 -1.1509
2065 1 21.2836 13.7936 7.17804 -2.59518 6.05595 -4.07157
2125 1 21.4063 17.767 7.06812 -3.63052 0.951737 6.45585
2067 2 21.446 15.9484 8.71187 -2.7244 -0.230667 3.02711
1224 1 19.7298 17.5785 5.36327 0.891382 -8.86955 0.578791
2124 2 19.8017 17.4231 8.82307 -3.38352 -3.77024 -1.2528
1168 1 23.288 14.0657 5.38164 -0.503227 -4.00371 -5.15067
1171 1 24.9764 16.1427 5.29354 -3.745 4.52755 -1.68812
2066 2 23.2663 15.8336 7.0617 -2.69876 -0.564575 3.29033
2069 1 25.0206 13.9159 7.06269 -2.80463 5.19537 1.50538
1228 1 23.2311 17.7102 5.41863 -2.22575 -2.80708 -1.86335
1172 2 26.6633 14.0857 5.15822 7.42857 0.359809 -0.534142
2129 2 24.9703 17.5775 7.18496 -2.04908 0.801685 2.92598
2132 1 26.6959 17.5391 8.64667 5.12996 -2.31055 1.22787
2105 3 3.53017 17.9157 7.12367 3.37826 -2.7357 0.754095
1204 1 1.66678 17.9499 5.28923 3.39699 3.32584 0.310041
2161 1 0.0957016 21.3016 7.10852 -5.12513 7.40171 -0.803917
1207 3 3.66713 19.3624 5.39386 1.14557 0.030338 1.57374
1264 2 1.76487 21.3921 5.48654 -1.56144 -0.972868 -1.03821
2102 1 1.67976 19.4548 7.20294 3.42538 1.04533 -1.90165
2165 3 3.50512 21.2018 7.29092 -1.40485 0.629088 -4.1826
1203 1 -0.0272901 19.6313 5.37938 -2.01552 -1.11332 -0.954807
1211 3 7.04475 19.4069 5.53302 3.86944 -1.79084 2.41245
1268 3 5.25175 21.2291 5.43246 0.922784 1.43261 -3.55292
2106 3 5.32303 19.4944 7.3303 1.58459 4.19581 -0.324566
2169 3 7.06758 21.3476 7.13541 -3.68353 1.68753 3.2002
1272 3 8.74675 21.1104 5.38426 -4.35118 1.41934 0.666055
1216 3 12.6236 17.8091 5.30471 -0.363986 -2.09049 -0.698859
2110 3 8.97166 19.5013 7.25588 -1.22974 0.00954351 -2.21409
1215 2 10.8068 19.4759 5.34811 -0.457082 -5.88211 -0.99104
1276 1 12.6057 21.321 5.39431 -2.47397 -6.98778 5.30049
2114 3 12.5382 19.5399 6.96593 -1.36633 3.08643 4.69261
2173 3 10.6259 21.4046 7.09811 -1.67963 0.418227 4.28603
2115 2 10.7227 19.6901 8.75562 6.40261 0.832808 -1.80874
2120 3 16.2751 17.8139 8.78962 1.42169 3.17756 1.05985
2117 1 14.3807 17.8831 7.24106 0.417706 -4.75956 1.10372
1219 2 14.4264 19.6141 5.46245 1.29968 3.21357 1.4598
1280 3 16.1679 21.3631 5.24802 -4.28978 1.80484 0.797276
2118 3 16.2027 19.4186 7.02371 -1.79411 1.29585 1.51759
2177 1 14.3427 21.3774 7.13466 -1.18742 -2.63246 -3.04951
1223 2 17.8092 19.6551 5.13893 8.94607 3.13908 5.57241
2121 2 18.109 17.8081 6.98418 -3.25112 -1.39562 -5.51675
2181 1 17.8572 21.3647 7.01678 1.01779 0.68806 0.125049
1227 2 21.7589 19.6503 5.51062 -4.61364 1.10044 3.75099
1284 1 19.8564 21.5204 5.48837 -0.1878 -0.955447 3.81324
2122 2 19.7238 19.5449 7.01153 -2.60103 1.61396 4.42896
2185 1 21.5178 21.5784 7.25471 -3.9817 -0.0577722 -1.4362
2127 1 21.485 19.7064 8.78913 2.29256 1.48882 -0.386222
1231 2 25.1309 19.4908 5.43103 0.849878 3.80549 -1.74003
1288 1 23.1781 21.5227 5.33801 0.707108 0.37367 2.1274
2126 2 23.3599 19.4884 7.21349 0.634152 0.869484 1.08058
2189 1 25.4427 21.4594 7.19253 1.4817 -7.30682 -1.11828
1323 2 0.0332172 26.4328 5.3603 -0.888614 1.91051 -0.04357
1267 3 3.47529 22.9089 5.49061 3.60397 0.897859 -1.0044
1324 2 1.78523 24.8379 5.18477 2.28728 1.16989 -0.53049
2162 2 1.59429 23.1707 7.34526 -2.49424 3.54176 -1.22267
2225 1 3.46168 24.8848 7.23712 -5.5183 0.964656 6.68585
2221 1 0.0605512 24.9863 7.17487 1.95773 -0.702509 -4.83946
1263 1 0.192571 23.1468 5.53498 1.36011 -3.34266 1.36244