ITEM: TIMESTEP
158400
ITEM: NUMBER OF ATOMS
13500
ITEM: BOX BOUNDS pp pp pp
-1.1412833769503550e-01 5.3634128337675250e+01
-1.1412833769503550e-01 5.3634128337675250e+01
-1.1412833769503550e-01 5.3634128337675250e+01
ITEM: ATOMS id type x y z vx vy vz
7 1 4.0142 1.35989 2.08491 -3.55219 1.85459 4.11269
64 2 2.04839 3.35137 1.92261 -0.674627 -2.27033 -3.31795
902 3 2.11567 1.55488 3.70665 -2.43453 3.82241 -1.17244
965 2 3.92335 3.21437 3.95958 4.81175 2.39439 2.93772
2 1 2.03316 1.4971 0.276735 -2.59416 3.26782 1.06117
961 2 0.294568 3.42925 3.70176 2.19648 -6.56184 7.54747
65 2 3.69463 3.34294 0.314446 3.64667 2.65464 -2.11051
61 2 0.047573 3.31463 0.0502867 4.34988 7.91016 -3.02442
3 1 0.200248 1.66209 1.98625 2.5648 -1.10279 1.18368
901 3 0.256796 0.0346628 3.70321 5.2449 5.5293 -0.260876
11 2 7.24379 1.4415 1.9753 -3.63362 -1.97796 -0.378729
68 3 5.61557 3.19606 2.05547 3.50213 0.649745 -1.14819
906 3 5.61403 1.50361 3.80026 -2.49188 0.741541 3.77782
969 2 7.47744 3.34894 3.97133 -4.33179 -1.33078 -1.19859
6 1 5.58559 1.46431 0.0987201 -1.13356 -2.73066 -4.43758
69 2 7.22813 3.32812 0.151805 -3.02242 -5.10353 -0.478623
910 3 8.80571 1.44874 3.80855 1.80733 0.877881 0.969639
72 1 8.9875 3.41372 1.92212 3.28791 0.753389 0.866363
10 1 9.01245 1.59279 0.434341 -1.14572 -3.02287 2.38225
15 2 10.8669 1.49932 2.05398 0.0918433 2.18834 -0.980276
76 1 12.6472 3.47213 2.06318 2.6774 4.63061 -3.13587
914 1 12.611 1.56734 3.84869 7.39741 -0.367493 1.60795
973 1 10.6722 3.14282 3.8747 0.859698 -1.15366 -1.29319
14 2 12.5361 1.61442 0.256908 1.05556 1.16861 3.66934
73 1 10.894 3.31584 0.183252 1.04573 -1.07224 -1.1542
16 3 12.6931 -0.0984014 2.00959 -3.93925 1.91381 8.67334
19 3 14.3765 1.50428 2.00477 -4.98833 1.32529 1.35382
80 2 16.0805 3.42909 2.16712 -1.6674 0.889271 -4.7919
918 2 16.1867 1.64989 3.73563 -0.593114 0.479936 -2.24822
977 2 14.5457 3.27465 3.88224 7.13014 1.48955 -0.373107
18 3 16.2331 1.54001 0.498527 -2.92006 -2.80192 0.964092
77 2 14.3531 3.10537 0.129022 1.84501 1.55622 -2.10674
81 3 17.8976 3.49101 0.269396 -0.343862 4.17963 -2.92808
981 1 17.9167 3.48491 3.82485 0.447333 -0.506661 1.73488
23 3 18.0321 1.66979 2.03821 -2.06506 -3.20783 -3.69317
27 1 21.522 1.4411 2.181 3.5783 1.26187 -1.47266
84 3 19.8106 3.25951 2.15718 -0.182454 -3.14272 -0.719247
922 2 19.8641 1.50174 3.87174 -5.90943 4.9166 2.72461
985 3 21.6134 3.3799 3.85481 3.43066 -0.434338 -4.04883
22 3 19.8668 1.73157 0.405751 -0.425385 4.28899 2.4009
85 3 21.7359 3.51206 0.310493 1.11355 -0.1535 -2.5146
31 1 25.2737 1.47694 2.12806 2.89147 0.977247 4.46404
88 3 23.5045 3.4397 2.01776 0.730055 3.34622 2.30975
926 1 23.3798 1.67637 3.7663 0.956356 0.193456 1.90405
989 2 25.1933 3.22881 3.84449 -2.16331 -3.86355 -2.27919
26 3 23.4194 1.6006 0.273942 -5.612 4.1092 -1.58556
89 2 25.3023 3.21118 0.268662 -1.90928 -3.67382 0.29188
29 2 25.3754 -9.02941e-05 0.25233 -1.74293 2.94521 -0.349746
121 3 0.200683 7.01609 0.237412 5.0236 5.20757 0.538095
67 3 3.79563 5.11834 2.12954 2.36907 1.26958 3.97343
124 2 2.06768 6.95532 2.0655 0.286048 -2.11882 1.92484
962 1 2.06098 5.05393 3.91107 5.77284 -1.67649 -1.53803
1025 1 3.90665 6.92559 3.78559 -3.67253 6.60201 -2.69277
62 1 1.90504 5.07817 0.395054 2.34994 -0.150382 1.09536
125 1 3.93766 7.01752 0.350792 -3.04791 -2.55878 -4.35646
1021 3 0.132155 6.91531 3.77302 -4.35479 -1.24157 4.10735
63 1 0.215748 5.16013 1.94994 5.89415 0.73375 -0.170797
1022 1 1.92514 8.5974 3.96286 -2.70502 1.82186 -1.39591
123 2 0.0764055 8.76715 2.15255 1.29144 0.76178 0.655918
127 2 3.81335 8.7783 2.05081 2.92674 1.49569 3.59619
122 1 2.09722 8.64175 0.380855 1.71348 4.22124 3.79269
71 1 7.34608 5.16453 2.06466 1.15823 -2.84559 1.03689
128 2 5.60645 6.9475 1.98466 0.920549 -2.5789 1.7103
966 1 5.72468 5.018 3.92964 -2.1125 -2.63977 -5.21073
1029 2 7.21974 6.99716 3.76648 -1.57394 3.68851 -4.2594
129 1 7.43204 7.07641 0.199965 -4.67656 -1.57584 -0.756545
66 2 5.72784 5.00432 0.324353 6.46159 -4.59279 -5.86361
131 1 7.26552 8.57269 2.10892 1.56904 0.898335 -1.82465
1026 1 5.68189 8.65535 3.92381 1.64004 0.100109 -1.15268
126 1 5.64556 8.81794 0.305625 -1.76099 -5.9772 -1.27615
970 2 9.15284 5.23386 3.8247 -1.06777 4.13549 -0.997571
132 1 9.10232 6.98168 2.03727 1.09785 0.55409 -1.0869
75 2 10.921 5.06982 2.08055 -0.0592729 -0.531057 1.00398
136 1 12.7489 6.84118 1.97057 -0.0852405 4.2192 3.74556
974 2 12.5652 5.0057 3.97478 1.41752 0.818953 3.02312
1033 1 10.9433 6.9234 3.72605 -4.33477 -5.19485 -3.5377
133 1 10.7479 6.99481 0.116953 -0.281866 3.40954 1.63031
74 2 12.6479 5.12307 0.124244 0.0409521 -4.22788 3.72248
70 2 9.01844 5.0933 0.244015 1.55032 0.466422 5.12226
135 2 11.0186 8.74696 2.03926 5.26225 -0.619034 -3.55423
134 2 12.5887 8.7197 0.279378 -4.53832 0.950664 -1.08524
1034 3 12.8224 8.58349 3.74219 1.08595 0.21485 -4.9585
130 2 9.1563 8.8064 0.226175 2.18622 3.01606 0.862637
1030 2 9.12607 8.62922 3.94937 -3.7407 -5.27692 0.325257
79 1 14.3206 5.12158 2.03416 1.04579 1.23981 -3.98875
140 2 16.1611 6.64077 1.90071 -3.9327 1.95802 3.00796
978 2 16.1349 5.03494 3.89279 0.659098 5.22901 1.60348
1037 3 14.5 6.82021 3.87683 0.595109 -2.43372 2.1762
137 1 14.5326 7.03975 0.041873 -2.70334 2.08709 -1.9587
78 1 16.0096 5.01276 0.190215 -3.26517 -1.41081 -1.07784
1038 3 16.3061 8.63655 3.85155 -2.36722 -0.961456 -7.80229
139 3 14.5676 8.80766 1.84628 -6.40942 7.5201 1.31158
138 3 16.3925 8.83462 0.21081 0.62715 1.57562 3.80835
83 3 18.0462 5.03772 1.96385 4.81593 -2.30869 -2.88776
1041 3 17.9779 6.84737 3.75178 -0.487925 1.75592 -3.41971
141 3 18.2291 6.86018 0.220748 -0.282394 -2.16932 3.79244
87 3 21.5152 5.01493 2.16843 0.497288 1.79601 0.188669
144 3 19.7903 6.73569 2.19704 1.38159 2.12039 0.86667
982 3 19.7703 5.077 3.88731 -1.99575 1.96547 2.25903
1045 3 21.7992 6.92897 3.75087 -4.16664 -1.74478 1.51961
145 3 21.7816 7.06319 0.440334 4.04783 1.49926 -1.76147
143 3 18.0928 8.74535 2.12608 -1.36484 1.81212 -2.44725
82 3 19.9523 5.16813 0.223528 3.10482 2.59783 -2.28912
1042 3 19.6247 8.77884 3.9481 -2.08889 -2.41317 0.945038
91 3 25.52 5.27718 1.82887 -2.91142 3.01744 0.207597
148 3 23.6438 7.00753 2.12147 -0.427338 1.11358 -0.595141
986 3 23.4438 5.15275 3.95774 0.23745 2.67653 1.48999
1049 2 25.2697 6.92168 4.06228 7.30799 3.88097 -5.35021
86 3 23.533 5.21303 0.293491 2.35591 -1.07542 0.512835
149 2 25.1653 6.99903 0.199909 -5.64166 2.39589 4.83725
146 1 23.4821 8.74164 0.3998 3.28397 1.48737 -4.6639
1046 3 23.5017 8.75702 3.77206 -3.0575 2.84472 -1.52042
151 2 25.2245 8.84465 2.05115 -6.05394 1.30737 -1.53723
184 1 2.06641 10.5921 1.97658 6.46904 -2.2729 -5.25563
187 2 3.85065 12.3629 2.35759 0.992244 -4.22125 -2.15808
1082 1 2.01937 12.1666 3.97071 -3.20535 -4.99649 3.8292
1085 2 3.77067 10.4716 3.74852 7.98587 -2.90228 -0.822479
182 1 2.08439 12.4032 0.343915 -0.142393 3.57133 1.39527
185 2 3.92858 10.4902 0.399374 -2.36912 -1.43835 0.156462
183 2 0.236845 12.2865 2.02053 -1.98005 2.72401 1.89671
181 2 0.418481 10.4855 0.282219 1.34465 -2.54613 3.73782
1081 1 0.222823 10.4449 3.78087 -3.05047 0.0976776 -0.251991
188 1 5.57103 10.6501 2.25805 -0.585079 6.06896 1.74474
191 3 7.48447 12.3215 1.94341 -6.16073 -0.665362 4.3003
1086 1 5.58518 12.5432 3.85645 4.77098 -1.99808 0.296306
1089 2 7.3263 10.4193 4.01739 2.54863 -6.71248 2.14524
189 2 7.32918 10.4668 0.324282 2.59451 -1.39361 -4.50921
186 3 5.55449 12.3652 0.225197 -0.24968 1.70813 3.38674
190 3 9.08565 12.2505 0.265889 -2.88314 -2.81272 6.60658
1090 3 9.06193 12.1278 3.98099 -4.24764 5.61971 -1.31081
192 1 9.1151 10.2913 2.00505 3.1695 0.976363 3.48706
195 2 10.8483 12.1859 2.14876 0.539292 1.2175 -4.90946
196 3 12.7603 10.614 2.10798 0.506021 0.529563 4.47438
1093 1 10.9361 10.5941 3.9767 0.232754 4.54138 -1.79771
1094 2 12.6962 12.4516 4.05788 -0.501149 -3.26766 -1.23322
194 1 12.7855 12.0771 0.394024 -2.18828 -3.30557 -0.00140277
193 1 10.7996 10.6172 0.362134 2.95881 -0.446095 1.63825
199 3 14.5965 12.3607 2.3075 -1.68692 3.26872 1.72729
200 3 16.3661 10.6072 2.29278 1.831 -2.32453 1.17512
1097 3 14.6034 10.5759 4.07254 2.83706 -0.337262 1.20238
1098 3 16.333 12.234 4.15589 4.41402 -5.51124 1.99915
197 2 14.7805 10.5585 0.344615 -0.686203 -1.1729 -0.239201
198 3 16.3909 12.416 0.610714 -1.08192 4.46427 -6.52374
142 3 19.8236 8.84883 0.423398 3.71189 1.75133 -0.408587
147 3 21.5917 8.90032 2.12459 3.31771 1.81504 -5.33367
201 2 18.1208 10.5289 0.528623 0.0893362 0.254986 0.252681
1101 3 18.1955 10.7241 4.12488 6.03009 -2.43356 1.34222
203 3 18.1263 12.2679 2.22446 2.81768 -2.68666 -5.46555
204 3 19.9184 10.6165 2.28674 2.94 -3.78891 -2.03616
207 2 21.9028 12.1865 2.07755 -2.09935 0.893026 5.71541
1102 3 19.9547 12.4328 4.04135 -1.96978 3.75316 -0.813745
1105 3 21.6228 10.4929 4.0244 3.8732 1.53965 4.8336
205 3 21.6438 10.5973 0.203618 0.333682 1.94515 1.78065
202 3 19.8648 12.3377 0.303169 -1.66527 0.322978 2.48366
208 2 23.4915 10.6851 2.11373 -0.435045 1.52468 -1.76731
211 1 25.2035 12.2827 2.03402 1.75396 1.89997 3.73664
1106 1 23.6007 12.4841 4.07021 1.53927 -1.0721 -6.93481
1109 1 25.1844 10.4799 3.98016 6.36968 -2.42215 -2.67434
209 1 25.2733 10.6795 0.296283 0.0589915 1.71565 -1.67975
206 1 23.4411 12.4274 0.373053 -0.686278 -2.60471 -1.55213
244 2 2.05266 14.044 2.12795 2.79472 -1.63605 -2.32407
247 1 3.73335 15.742 2.06463 -0.429135 6.96818 0.840046
1142 2 1.74103 15.8011 3.8082 3.54282 2.31981 3.19927
1145 1 3.78511 14.1591 3.90107 0.256617 -1.69573 0.549561
245 1 3.86611 14.0806 0.320782 -2.03255 -2.63772 2.87319
242 2 1.93385 15.8292 0.327724 4.11848 -2.54683 2.3293
243 1 0.157775 15.998 2.0115 -2.85509 -1.55459 3.79268
1141 1 0.260179 14.0509 3.77865 1.18368 4.61089 -3.42195
241 1 0.133888 14.0293 0.305838 -1.70454 -0.36644 2.98573
1205 2 3.82342 17.7296 3.88856 -4.49263 -1.007 -3.90807
304 1 2.06378 17.6796 2.13016 -3.84776 1.16394 -1.08189
248 2 5.55767 14.1951 2.14715 -4.55158 -1.86414 -1.57272
251 3 7.31134 16.0324 2.26797 -0.0317699 -4.56224 2.02371
1146 2 5.47441 16.0143 3.90053 0.778065 -1.6973 0.763574
1149 3 7.50035 14.0661 3.78662 4.9299 3.89804 -0.379334
246 1 5.57196 15.9193 0.574575 2.51377 3.78956 -1.67572
249 3 7.38959 14.0679 0.108585 -6.44173 -3.11066 1.88443
308 1 5.62341 17.5 2.20489 0.778638 -0.699709 -6.57293
309 2 7.42344 17.611 0.242407 4.81367 -0.0586613 1.50775
252 3 9.00418 14.0891 1.96354 2.8291 2.93718 -7.52164
250 3 9.11001 15.9895 0.44524 -4.84688 -0.744181 -4.9335
1150 2 9.13886 15.8735 4.07491 -0.405886 0.876157 -0.730753
255 3 10.9043 15.9052 2.1425 -0.758502 0.175504 1.84251
256 3 12.8262 14.0679 2.15598 2.70967 -6.21444 -4.90836
1153 3 10.897 14.0535 3.82204 1.59362 -0.996384 -0.758542
1154 2 12.5665 16.0008 3.91292 -0.597749 -2.13236 -1.05115
253 3 10.9262 13.9602 0.354662 -5.14159 -2.61203 -1.23217
254 1 12.607 16.129 0.411146 -1.68866 4.76878 0.699974
316 2 12.6168 17.6175 2.17543 4.09597 -3.7141 4.06095
1213 1 10.6426 17.5917 4.09347 1.93533 -0.237871 2.37074
312 3 9.19371 17.6079 2.05003 -1.57123 0.903929 -1.66808
259 3 14.6117 15.964 2.04274 -3.88202 0.388465 -2.66446
260 3 16.392 14.1503 2.49319 0.999504 -2.26661 -1.37749
1157 3 14.5482 14.2333 3.97172 -6.11586 -0.953068 -6.22778
1158 2 16.4751 15.8553 4.13067 -3.62806 -1.4561 -6.09218
257 2 14.5826 14.0676 0.294218 6.65361 3.73765 2.49649
258 1 16.2061 16.008 0.288067 3.11563 -2.00594 -1.12226
320 2 16.2178 17.7568 2.12834 2.45453 3.32798 3.15856
1217 1 14.7098 17.542 3.96009 -2.09019 1.80099 -0.312038
317 1 14.5229 17.6738 0.282329 -0.128535 -1.91354 4.1265
1161 3 18.2844 14.0895 3.93884 3.56406 6.3666 -0.429922
261 3 17.9702 14.233 0.423044 -1.94481 2.59654 -2.10072
263 3 18.113 16.1028 2.1617 -2.04891 2.13205 -1.11594
264 2 20.0008 14.1445 1.90409 0.406639 0.677131 -2.90755
267 2 21.588 16.0533 2.06983 -4.4389 4.46559 -0.859169
1162 3 20.017 15.9436 4.01429 -1.17925 1.19229 -10.1124
1165 1 21.6531 14.194 3.8119 2.00024 -2.03587 -8.0745
265 1 21.9245 14.0748 0.272298 1.44358 -2.39017 -5.61537
262 1 19.9633 15.8896 0.304329 2.8059 4.47839 3.16965
321 3 18.1524 17.7806 0.366982 -1.29446 -2.05467 -5.63711
1221 1 18.0406 17.7755 3.9053 1.23177 1.63213 -0.070357
324 2 20.0352 17.7237 2.01724 -5.02099 -1.72049 -4.74066
325 1 21.677 17.7848 0.297749 -1.35166 2.40707 2.05762
1225 1 21.8917 17.606 3.9399 4.78728 -1.19665 0.533444
268 3 23.6162 14.085 2.00975 -4.08943 1.23979 -2.66614
271 1 25.3447 15.9224 1.89483 -2.13985 -2.34056 3.08261
1166 2 23.3405 15.8224 3.83733 3.83969 -3.06162 2.94279
1169 2 25.3125 14.1006 3.8942 2.43091 -6.11003 0.686325
266 2 23.3829 15.7689 0.0272974 -1.82904 4.2998 -1.62578
269 2 25.3322 14.0115 0.184446 -3.50624 -6.9243 -5.8786
1229 2 25.1429 17.3375 3.78957 2.98431 -0.37341 2.58094
328 1 23.3476 17.3613 2.0022 -1.32218 0.0719731 -4.42581
305 2 3.89487 17.8672 0.505093 5.63621 4.8834 0.417671
1201 2 0.0287541 17.8334 3.89372 -3.0451 -2.01277 3.45742
301 2 0.234276 17.8052 0.459363 1.55 -3.06719 -3.51207
307 2 3.86617 19.5348 2.13497 -1.64821 5.90879 0.248851
364 1 1.99861 21.4467 1.95377 2.42791 -2.96 -2.23468
1202 3 2.00055 19.4416 3.63867 8.99616 -1.5363 2.38719
1265 1 3.5741 21.3702 3.7038 0.400844 4.27118 -2.0257
302 3 2.02462 19.5044 0.393828 1.69473 1.37795 2.12725
365 3 3.62163 21.3855 0.18159 -0.611034 -0.963057 1.86235
1261 2 0.173283 21.2771 3.88317 -0.0330091 2.32506 -1.30788
303 3 0.142976 19.611 2.07152 -3.08181 -0.940361 -4.07136
361 3 0.0962176 21.3109 0.445367 -0.0460394 2.43662 -4.615
1209 3 7.46542 17.8581 4.1267 -0.138556 0.899144 0.968051
311 2 7.12256 19.2949 2.04882 2.02975 1.7444 -4.56318
368 2 5.41914 21.4076 2.18225 -2.88464 1.70989 -0.446313
1206 1 5.50806 19.4741 3.93894 -0.530259 2.38518 -6.40495
1269 1 7.3071 21.1679 3.74327 2.74863 4.83988 0.0603988
306 1 5.68976 19.5896 0.295792 3.16568 3.23522 -1.3082
369 2 7.37333 21.0291 0.372282 0.62634 -3.64063 1.03492
310 1 8.99757 19.4129 0.216814 4.16917 1.19599 -4.63007
313 3 10.7769 17.8342 0.456113 1.62774 -2.60693 -0.176167
1210 2 9.08338 19.489 3.68533 0.410247 -0.528693 -1.97828
372 1 9.05002 20.9379 1.90577 -3.15105 1.57374 -1.57115
315 2 10.9159 19.4593 2.36774 1.29661 3.71766 4.58625
376 1 12.5912 21.4656 2.34031 0.391567 2.36004 0.641788
1214 1 12.6813 19.1835 3.75689 0.153199 0.95573 -0.0685443
1273 3 10.6951 21.3999 3.69109 0.0996237 4.55983 -3.84138
314 3 12.725 19.4717 0.493585 -2.32245 -0.634009 -2.84576
373 1 10.7574 21.1786 0.404264 0.0594591 -0.793885 3.69728
319 2 14.5017 19.3089 2.19461 -5.76832 -1.84732 -2.37103
380 3 16.3006 21.303 2.22713 -3.11185 -2.82734 3.90983
1218 1 16.1578 19.4217 3.92032 -2.35603 5.55766 0.599812
1277 1 14.5233 21.4389 4.07828 2.53493 1.79888 -0.18786
377 2 14.3641 21.2521 0.707872 2.12797 1.67206 -6.46271
318 1 16.3463 19.4985 0.387238 -2.06283 5.32171 -3.75917
1281 2 18.101 21.2256 3.89461 -4.75938 -3.64172 0.168455
323 3 18.0916 19.5005 2.14601 0.305332 -2.99317 5.69654
381 2 18.0377 21.3864 0.276577 -1.91758 1.90103 1.51769
327 3 21.7633 19.4108 2.15081 1.67261 -4.56474 -4.53192
384 3 20.0761 21.195 2.19907 1.35669 -5.50992 0.547546
1222 3 19.9132 19.3601 3.94081 6.02483 0.546805 6.4083
1285 3 21.7915 21.1638 3.89858 -4.80916 -3.16813 -3.16462
322 2 19.9423 19.5014 0.211814 3.65548 -2.36151 -1.44828
385 3 21.7827 21.2356 0.363286 2.99687 -5.13258 0.840792
329 2 25.4257 17.8272 0.240768 0.813548 -2.30098 -0.647072
331 1 25.2411 19.3132 2.26509 0.513047 2.90279 1.58813
388 3 23.5293 21.0862 2.22198 -5.25949 -0.48719 4.03526
1226 2 23.612 19.0748 3.99045 1.83113 2.5988 -0.855147
1289 1 25.2045 21.1473 3.99037 -1.33719 -1.67325 1.39248
326 2 23.5711 19.3871 0.445082 -5.50176 -4.42492 3.36705
389 3 25.3193 21.2318 0.323475 0.879951 -7.00743 -2.98478
367 3 3.6851 23.3274 2.21621 0.415722 3.71753 0.801072
424 3 1.88316 24.8508 2.01024 -4.6481 0.787779 1.05556
1262 3 1.79978 23.0707 3.8665 -1.90861 2.52317 -0.455679
1325 3 3.67624 24.9764 3.9843 4.04919 -4.62115 0.645154
425 3 3.85029 24.9764 0.333732 -1.67845 2.83414 1.98337
362 2 1.94846 23.0589 0.216131 -0.951808 -3.39775 -1.45626
1321 1 0.177089 25.0301 3.7006 -2.64833 -2.90886 -2.51825
421 3 0.182618 24.822 0.307395 2.06885 -4.12572 -2.98468
363 3 0.0573115 23.0882 2.05254 0.285557 0.841392 -4.48903
423 2 0.20049 26.7313 2.08787 1.8923 3.13601 -0.42677
422 3 1.95718 26.5573 0.352927 -0.0988763 -3.86856 -0.884385
427 3 3.58941 26.6053 2.36797 2.7277 -2.81749 0.437039
371 3 7.26959 22.8592 2.12786 1.04778 -2.28174 -4.23744
428 3 5.68542 24.8342 2.15589 2.12361 0.0516068 -0.96291
1266 2 5.39627 22.9609 3.85396 -2.62187 -0.0986921 -5.26593
1329 3 7.26438 24.5506 3.89275 -2.0275 2.72565 -4.27573
429 3 7.41554 24.9365 0.097858 7.1171 1.91263 1.96596
366 3 5.48781 23.121 0.285568 0.466094 -0.920499 -4.99336
426 3 5.51992 26.7008 0.307725 0.908086 3.64719 0.864857
431 3 7.38543 26.6962 2.13803 -6.63824 1.32272 2.39646
1326 2 5.31182 26.6669 3.96139 3.02192 -7.82537 -2.52432
432 3 9.06318 24.679 1.87758 1.08697 -6.16645 -1.68844
370 2 8.96445 23.0142 0.209608 -1.03214 3.76914 9.01727
1270 3 9.01121 22.9618 3.76753 1.09543 1.88416 -1.55831
375 3 10.9127 23.0781 1.96887 -1.39318 3.35889 -1.79671
436 1 12.8748 25.0328 2.03906 -4.40126 3.37951 -7.91199
1274 2 12.5943 23.3537 3.8044 4.13911 -0.507386 -0.366592
1333 3 10.6244 24.9748 3.86256 -0.559674 -0.58604 5.63316
433 3 10.7447 24.8652 0.297978 -1.3421 1.36603 -1.06175
374 2 12.6237 23.1942 0.451751 -1.34256 5.1925 1.77853
1330 3 9.06387 26.552 3.87042 0.101654 2.39472 2.93177
434 2 12.7797 26.528 0.218674 -4.85716 -2.92269 3.00576
430 3 9.24538 26.7268 0.408656 -2.62764 1.6233 -2.66578
435 3 10.8949 26.734 2.25806 -5.41168 -1.29997 3.39429
1334 2 12.5619 26.6563 4.00106 0.291841 -4.29219 -2.66199
379 1 14.4942 23.2676 2.09165 -4.40454 -3.26363 1.30438
440 2 16.3479 25.0603 2.28578 -0.587034 2.8736 -3.20028
1278 2 16.354 23.1631 3.93769 8.64246 1.85969 -3.2633
1337 3 14.4322 25.0219 3.99908 -2.7216 -0.839853 -3.49963
437 1 14.5518 24.9386 0.414821 3.61693 3.39092 1.02517
378 2 16.1358 22.953 0.439707 1.44434 -1.40541 1.26728
1341 1 18.311 24.8529 3.9688 -0.96921 -2.77513 -4.58382
383 1 18.1164 23.0534 2.13423 1.65442 -2.72063 -1.11383
441 3 18.1814 24.8476 0.343493 -6.66527 -0.506247 -0.882795
387 3 21.7842 22.8823 2.143 2.72886 2.50218 -0.239862
444 2 20.0042 24.7655 2.27179 -1.08544 -1.17226 7.12775
1282 2 19.8252 22.8188 3.85817 -2.54685 -3.29729 -1.68363
1345 2 21.5834 24.7101 3.85816 1.62198 0.767611 -1.90844
445 1 21.8573 24.6765 0.502596 -2.80852 -0.236326 -2.86209
382 1 20.026 22.9653 0.413997 3.74447 0.100547 -1.23953
447 1 21.5339 26.5937 2.21682 0.309011 -1.54964 -1.48132
443 2 18.0308 26.7211 2.33123 -4.01468 3.81617 -2.66615
442 2 19.9947 26.3142 0.403244 -0.403444 7.1265 -0.253377
391 2 25.6044 22.9953 2.08931 -1.56944 1.96464 1.11719
448 1 23.6473 24.9605 2.19037 -1.89257 -4.03304 -1.65815
1286 2 23.6448 22.8782 3.8414 6.68241 -0.221084 7.39071
1349 1 25.2927 24.7068 3.87851 2.28309 1.47008 -0.122457
386 2 23.6589 23.1011 0.429918 -3.07885 -2.4449 -0.406873
449 1 25.4307 24.7613 0.452739 -1.01052 0.378548 -4.32319
446 2 23.5959 26.5926 0.308256 0.254471 1.01381 -6.75251
451 1 25.1358 26.7184 2.22735 1.95209 2.40209 3.97654
907 2 3.8241 1.74001 5.68845 -0.820106 1.45013 -1.67654
964 1 1.96437 3.43912 5.68404 1.15669 3.98413 2.37701
1802 3 2.00051 1.72068 7.29896 -0.374358 -0.493763 3.57283
1865 1 3.89341 3.28547 7.57341 -1.51583 4.44063 0.120407
903 2 0.232797 1.66283 5.53384 -3.10263 0.0767996 2.06784
1861 3 0.254151 3.35579 7.34013 -2.49048 3.49576 0.134007
1801 3 0.0879103 -0.00785779 7.27834 -2.04262 -1.75663 -1.08321
904 3 1.94843 -0.015697 5.59099 2.64862 -0.192999 1.26127
1805 3 3.60474 -0.06001 7.477 3.14282 7.61553 -2.2616
911 1 7.21086 1.4695 5.87201 -5.09584 2.25132 -1.92837
968 1 5.62388 3.40258 5.7662 -1.47307 -1.82045 3.87519
1806 2 5.571 1.31027 7.46753 4.58375 0.177965 0.32551
1869 3 7.30489 3.33902 7.48615 -3.00074 1.85406 -3.10663
1810 3 8.97289 1.60632 7.47117 -2.11607 -2.16997 -2.08533
972 3 9.05977 3.25706 5.72804 2.91327 -6.88492 -4.88783
915 3 10.8195 1.44857 5.581 2.2512 -1.84456 -3.68155
976 2 12.7736 3.22842 5.66819 0.374686 -1.45351 0.959281
1814 1 12.5837 1.52737 7.41746 -0.122098 -1.16146 1.50561
1873 2 10.7737 3.33564 7.54004 -4.86524 -2.7951 -3.69816
919 1 14.3887 1.59638 5.70899 -3.19841 -1.50564 -1.01769
980 1 16.2566 3.24588 5.75157 -1.6622 -5.62947 2.92857
1818 1 16.4082 1.5949 7.57508 3.19871 -3.27924 -1.19638
1877 2 14.3891 3.17154 7.43272 0.900896 5.32253 -1.07425
923 2 18.0016 1.62791 5.59511 -2.90329 2.38608 2.40831
1881 2 18.099 3.54268 7.57444 2.89053 -2.68456 3.3689
927 1 21.5928 1.62828 5.40576 6.00613 -0.528357 -3.37972
984 2 19.8582 3.52113 5.7191 6.01001 -6.08576 3.00149
1822 1 19.7463 1.52024 7.33795 -0.39515 1.09251 1.98799
1885 3 21.4841 3.25811 7.62807 -0.932366 0.587632 -2.17664
931 1 24.9958 1.55044 5.70624 7.565 -1.83848 -1.21866
988 3 23.434 3.43519 5.83773 2.20365 -1.10244 1.73752
1826 2 23.512 1.48201 7.40197 -0.755657 2.32512 -0.4061
1889 3 25.2805 3.38262 7.56321 -0.735824 -0.151594 -1.16476
967 2 3.87637 5.00121 5.79547 -1.03666 4.81242 -0.162021
1024 2 2.03171 6.79548 5.55679 -1.31132 3.11195 -0.596814
1862 2 1.96395 5.08746 7.39534 1.46216 0.564922 4.89773
1925 1 3.61847 6.80345 7.35373 2.40161 -1.1059 1.73695
1921 1 0.255284 6.97152 7.41259 3.3547 2.05324 -0.0364519
1922 1 1.8759 8.66219 7.49969 1.82129 -1.25746 -5.5444
1027 2 3.75352 8.65054 5.74363 -3.86494 -0.0651309 3.59045
963 2 0.126196 5.21878 5.57987 1.88288 3.62824 -5.57735
971 3 7.4476 5.11178 5.72785 -1.5902 1.83686 1.28783
1028 1 5.50242 6.92473 5.76718 5.02621 5.69584 -0.648485
1866 2 5.59415 5.22967 7.49509 -2.97623 2.84488 0.574403
1929 3 7.50854 6.95361 7.44232 -0.918945 -0.199536 1.15067
1031 3 7.44819 8.66052 5.81016 -0.270442 -3.6893 -0.651855
1926 3 5.67443 8.59181 7.48159 0.964402 5.72169 1.67201
1032 1 9.2128 7.04473 5.47549 6.28266 -2.00152 -4.58959
1870 2 9.12905 5.10806 7.49386 5.29616 -2.35063 -2.02379
975 1 10.8289 4.90933 5.63584 1.43893 2.27449 -3.30515
1036 2 12.7133 6.87206 5.61416 -3.71715 -2.93599 1.70838
1874 1 12.8332 5.2176 7.38511 3.03254 6.04097 -1.21484
1933 1 10.9165 6.85513 7.32876 3.87333 4.48498 -1.56705
1930 2 9.31995 8.62699 7.62551 3.28048 -3.27875 0.26198
1035 2 10.9886 8.64391 5.64446 1.39809 0.00952522 4.25965
1934 1 12.8213 8.67508 7.32521 2.70826 3.0147 -0.901952
979 1 14.6184 4.99974 5.61196 -4.79322 2.87721 1.97515
1040 2 16.3315 7.03359 5.71678 -1.66355 0.838511 -0.89342
1878 2 16.4596 5.2097 7.46406 -2.25094 -3.73692 7.11291
1937 3 14.6036 6.81141 7.46694 5.09837 -1.00609 7.39833
1039 1 14.4704 8.5912 5.49207 2.05521 -2.74606 -2.86062
1938 2 16.2609 8.3324 7.59713 5.0332 0.00344827 -0.228564
1941 1 18.1851 6.89686 7.66298 -4.37111 -1.44313 1.33993
983 3 18.0111 5.16416 5.55265 -1.65063 6.73643 6.4271
987 2 21.7834 5.17144 5.62811 3.03537 3.61114 -3.04867
1044 3 20.1477 6.85757 5.58169 2.21333 -1.08731 -2.84417
1882 1 20.0419 5.19393 7.44531 1.28208 0.162809 6.02957
1945 1 21.7093 6.90084 7.63188 -3.47835 4.16735 -1.66361
1047 2 21.5976 8.68884 5.5727 3.642 -1.78767 -2.00027
1942 3 19.9901 8.80011 7.61566 0.563106 1.68779 3.99842
1043 3 18.0021 8.59355 5.82443 1.51379 2.73805 -6.87367
991 3 25.379 4.91979 5.67254 1.81904 -1.53913 -0.390504
1048 1 23.4756 6.92705 5.59266 -2.46293 0.302632 0.738905
1886 2 23.2016 5.20085 7.58104 -1.76512 -2.31296 1.95955
1949 1 25.234 6.80395 7.47571 0.832015 7.41321 3.43449
1946 2 23.5483 8.61618 7.43218 4.39526 1.12456 4.19594
1051 2 25.1516 8.69744 5.67251 4.70245 -2.93745 -1.62939
1023 1 0.204955 8.86946 5.69137 0.409355 -3.7911 -0.445482
1084 2 1.9902 10.5945 5.703 4.08335 -3.31456 -1.90224
1087 3 3.85695 12.1171 5.71311 -0.132687 0.250645 5.28634
1982 1 1.96339 12.202 7.35636 1.9314 0.946971 -1.36368
1985 3 3.89797 10.3306 7.48164 1.46754 0.673957 -0.520253
1083 2 0.187563 12.169 5.76058 -4.15802 1.76108 2.61542
1981 2 0.234596 10.4699 7.54649 -3.67553 -0.76228 2.5539
1088 3 5.70439 10.5509 5.82781 -5.366 -1.26673 -0.775341
1091 3 7.39488 12.2947 5.81038 2.17633 2.98354 1.5799
1986 3 5.68284 12.4645 7.52835 -4.02453 5.33768 -0.627902
1989 3 7.33781 10.4044 7.5376 4.68062 -0.166445 1.23077
1990 3 9.09294 12.1096 7.66126 3.43119 2.44301 3.56752
1092 3 9.26565 10.3863 5.93561 3.17316 1.19716 -0.0692467
1095 2 10.7601 12.3781 5.63957 -0.745028 1.05336 -1.31779
1096 2 12.6406 10.432 5.66834 2.2681 -3.91388 3.62388
1993 1 11.1169 10.4895 7.50121 -3.61603 -0.679512 -2.79222
1994 1 12.5509 12.2458 7.53825 1.60502 5.51581 2.10842
1099 1 14.3463 12.5158 5.77065 1.87896 2.03737 -1.45561
1100 3 16.4054 10.3408 5.71714 2.63415 -3.40468 4.1228
1997 2 14.5334 10.5782 7.21231 -0.69373 0.779829 5.70003
1998 1 16.2769 12.2303 7.55835 -2.83885 -1.83293 -1.14678
1103 2 18.1566 12.368 5.82532 1.11894 2.57563 3.04471
2001 2 18.0129 10.5665 7.79549 3.80292 1.27378 -2.78804
1104 3 19.9212 10.5325 5.6581 1.88728 5.80735 4.30743
1107 3 21.7561 12.2392 5.66132 4.48313 -3.94773 -1.46144
2002 1 19.8782 12.1584 7.65065 -1.12785 -1.12411 -1.70644
2005 1 21.7489 10.3571 7.56349 3.15226 0.833512 1.82796
1108 1 23.5894 10.5369 5.82677 -0.515432 2.43728 -3.32401
1111 2 25.3456 12.1108 5.91058 -6.37929 1.53594 1.07059
2006 2 23.6153 12.2287 7.53068 -2.14403 -2.49846 -0.128342
2009 1 25.3276 10.3256 7.60893 3.94975 -6.39354 1.53122
1144 2 2.14552 13.9674 5.53709 4.19195 -1.66547 1.5978
1147 3 3.77763 15.8089 5.72774 -1.47885 0.140125 2.19416
2042 3 1.92202 16.0216 7.35315 -1.0748 4.23185 -2.03448
2045 3 3.85289 13.9495 7.39019 7.96812 2.7071 -4.78671
2041 3 0.342421 14.0427 7.42897 8.66086 -2.66301 -3.60546
1143 1 0.0352946 15.8896 5.63693 -2.69464 -2.49309 -3.62456
2101 2 0.11106 17.7684 7.42428 3.65903 -0.852644 -0.731184
2105 3 3.71929 17.7053 7.43246 -0.091216 -0.940405 -0.302636
1204 3 2.03116 17.3757 5.44321 3.48905 1.4926 -4.62044
1148 3 5.59275 14.0756 5.60115 -3.96497 0.53009 -2.01447
1151 1 7.35038 15.9819 5.77703 -2.18907 -7.66776 -1.07501
2046 3 5.48201 15.911 7.78659 -3.40537 5.19735 0.579758
2049 2 7.54242 13.9186 7.55373 -2.4591 1.72005 1.62601
1208 1 5.38353 17.6236 5.66336 3.93467 3.05983 1.61981
1152 3 9.06969 14.1282 5.71794 1.37205 1.02371 9.535
2050 1 9.08076 16.0086 7.62125 0.265178 3.47606 -0.894621
1155 1 11.0422 15.669 5.92904 2.03711 -2.57577 -0.922287
1156 1 12.6911 14.1711 5.68598 0.616821 1.29164 -2.52335
2053 2 10.5979 14.0669 7.52255 0.741813 -6.63543 1.21507
2054 1 12.7241 15.8171 7.50527 -2.93805 -0.196442 0.570384
1212 2 9.11284 17.5748 5.98972 5.02923 1.18621 0.0339223
2113 1 11.028 17.7173 7.49828 -0.215271 2.68465 5.67324
1216 2 12.7459 17.5859 5.8682 1.12741 -0.820548 2.05362
1159 1 14.5086 15.94 5.7201 2.4854 3.96263 -3.59126
1160 2 16.3335 14.0836 5.8475 -4.6048 -0.486695 0.131961
2057 2 14.5257 14.0848 7.49179 0.698561 -1.56208 0.673658
2058 1 16.4138 15.7548 7.38026 4.43223 -1.48276 2.39839
2117 2 14.3233 17.6082 7.53742 0.570172 1.8503 1.42157
1220 2 16.2831 17.6519 5.84638 1.5638 -1.22431 1.88199
2061 2 18.1207 14.093 7.67045 -2.15623 3.16701 -0.493187
1163 1 18.1715 15.8113 5.67946 1.81082 -1.89437 -7.45665
1164 2 19.8342 14.1334 5.9698 -4.44619 4.3646 6.011
1167 2 21.8973 15.6489 6.02829 -3.04872 0.230451 -4.64978
2062 1 20.0404 15.9086 7.53767 0.148329 1.32514 -2.38854
2065 1 21.6948 13.6987 7.5191 0.455716 0.234121 -3.3298
2125 1 21.5706 17.7657 7.61183 0.650025 -0.799676 -0.512552
1224 2 19.9166 17.6747 5.79404 7.16635 4.58281 1.44975
2121 2 18.2089 17.5482 7.47167 2.81765 4.0984 5.7299
1168 3 23.502 14.0951 5.70037 -1.70091 -0.736208 3.15441
1171 1 25.1539 15.9509 5.94027 6.27707 2.13727 2.51878
2066 2 23.4608 15.5977 7.85193 2.91993 0.140849 0.912619
2069 1 25.1812 13.9925 7.89056 -4.72347 2.29959 -0.500226
1228 1 23.3343 17.416 5.90134 -7.46752 4.01378 1.94228
2129 2 25.102 17.7599 7.61054 5.20122 -2.02508 1.31054
2070 2 26.6609 15.7489 7.61809 1.06018 0.538853 -1.21347
1207 3 3.62213 19.4167 5.48917 -2.7829 5.16221 -3.29182
1264 2 2.0372 21.219 5.46633 -3.63954 3.46106 -2.39054
2102 1 1.78384 19.3812 7.5351 -2.88578 0.434944 -1.24773
2165 3 3.59707 21.1948 7.34507 -0.762477 -2.46145 5.0072
2161 2 0.352141 21.3036 7.59373 -3.89505 -2.51598 -0.64505
1203 1 0.181081 19.6355 5.73271 -1.01958 -5.64993 5.01457
2109 2 7.24615 17.8059 7.46302 -3.5201 -0.987723 -6.30445
1211 3 7.10642 19.3927 5.71646 2.49339 0.91923 2.76567
1268 3 5.18686 21.3392 5.65069 -0.0539287 -3.49477 0.601474
2106 3 5.31222 19.4159 7.41827 0.524273 6.51212 -3.47336
2169 3 7.23421 21.2628 7.45916 -2.04489 2.63989 -1.81415
1272 3 9.15502 21.3374 5.52238 4.26539 0.646778 0.274191
2110 3 9.05757 19.4775 7.43411 -0.507845 4.54225 1.17771
1215 3 10.8471 19.5877 5.56006 -3.08272 0.803467 -1.53497
1276 3 12.7263 21.4899 5.57474 -0.843763 0.579366 -1.12674
2114 2 12.639 19.4903 7.41996 2.84762 7.36179 5.35503
2173 3 10.7931 21.357 7.40027 7.41843 -2.76578 -3.49321
1219 2 14.2346 19.5655 5.61294 -0.677376 0.451204 0.203876
1280 1 16.369 21.376 5.74538 -2.45892 -0.280872 4.83111
2118 1 16.1953 19.6198 7.39003 -2.5119 -5.08321 5.15145
2177 2 14.5756 21.294 7.39887 -2.32395 -0.0163853 -6.49501
1223 2 18.0775 19.5644 5.60897 -2.51108 0.176166 0.0785129
2181 2 18.2394 21.3557 7.55696 2.70423 2.05793 -5.59329
1227 2 21.791 19.4832 5.89926 -2.23223 9.82855 -0.517212
1284 3 20.0569 21.0635 5.77508 -2.18224 -0.727932 1.85628
2122 1 19.951 19.4758 7.6695 -0.900987 3.0798 -2.59547
2185 1 21.6074 21.4416 7.59116 -2.35333 0.147664 2.1295
1231 2 25.1875 19.5284 5.76449 4.7524 1.87438 1.32627
1288 1 23.5298 21.347 5.61902 -1.72122 2.25495 -5.01065
2126 2 23.4243 19.529 7.56345 1.64415 -1.87844 -2.60638
2189 1 25.06 21.3996 7.62071 1.05216 -5.54327 -2.81415
1267 1 3.59351 23.1003 5.67143 -1.22671 -2.93712 -1.34999
1324 2 1.72374 24.9217 5.70907 3.62461 0.321571 1.51362
2162 2 1.99261 23.1509 7.34732 -1.44561 3.47305 -6.19687
2225 2 3.64911 24.8797 7.35188 -0.925261 5.32876 -2.43648
1263 1 0.167575 23.061 5.71209 -1.31404 -1.37336 4.40711
2221 1 0.124899 25.0162 7.40873 -1.93372 -4.10556 -0.303532
1327 1 3.64289 26.7031 5.78167 -3.17186 -1.36135 -4.06732
2222 3 1.99295 26.6277 7.4549 1.03952 1.79926 1.52318
1323 1 0.116798 26.6502 5.79028 1.26822 0.313339 -1.15039
1271 3 7.09099 22.9087 5.88543 -3.27459 -1.44417 3.61596