ITEM: TIMESTEP
62400
ITEM: NUMBER OF ATOMS
13500
ITEM: BOX BOUNDS pp pp pp
-1.1213792989223137e-01 5.3632137929884180e+01
-1.1213792989223137e-01 5.3632137929884180e+01
-1.1213792989223137e-01 5.3632137929884180e+01
ITEM: ATOMS id type x y z vx vy vz
7 2 3.74059 1.56023 1.93445 -2.606 7.26737 -0.0566925
64 1 1.7186 3.64146 1.69263 -2.20078 -1.82895 3.22015
902 2 1.95145 1.76525 3.53707 -1.65523 0.0640282 -0.785188
965 1 3.49329 3.50937 3.48272 0.858646 -4.6808 -3.54233
961 1 0.0244849 3.20457 3.66086 1.83117 -4.13361 3.25902
61 2 -0.0904937 3.60495 -0.0338991 -3.79669 -3.66858 0.496238
3 1 0.0265259 1.76922 1.80604 -1.71463 0.85965 -3.9275
65 2 3.66765 3.50235 -0.0845762 4.79707 -9.76465 -5.68967
2 3 1.9933 1.77647 0.013314 -5.54052 0.22591 3.16641
1 1 -0.0228909 -0.0226524 0.0625106 -0.155231 -3.49785 1.39463
11 3 6.91984 1.6658 1.92393 -6.42357 1.40758 -3.78009
68 2 5.28689 3.3236 1.63129 -5.40227 0.930231 -0.28428
906 1 5.26749 1.78584 3.54284 3.89595 -3.77161 -1.81481
969 3 7.10378 3.46147 3.72826 2.22295 -0.536439 -3.03537
69 1 7.09005 3.49341 -0.038099 -0.611665 -0.667883 -1.96678
909 2 7.0269 -0.0252652 3.42175 2.33179 -2.5737 -2.44919
72 1 8.812 3.45626 1.66185 -2.31639 -1.94434 -0.613093
9 1 7.30054 0.022457 -0.0912961 2.20653 2.82634 2.00737
12 3 9.01788 0.109143 1.65534 3.4748 0.247868 -4.62523
910 3 9.00154 1.7826 3.47074 0.97982 3.37539 4.4096
15 2 10.7174 1.83769 1.7923 -3.04869 -1.89322 -0.908572
76 1 12.5507 3.51872 1.87841 3.58831 -0.277692 4.27315
914 3 12.5212 1.65623 3.54494 1.26902 -3.94278 -0.0241659
973 1 10.7282 3.42909 3.60904 -0.291657 3.99287 7.5222
73 1 10.9691 3.43338 -0.0751578 0.764695 5.25003 -2.77403
16 3 12.3438 -0.0160259 1.83745 6.8247 -4.14319 -4.74091
14 3 12.6048 1.57991 0.145114 -3.86666 0.0211213 -1.91711
10 1 9.14747 1.85899 -0.0947902 1.80411 -1.02304 3.69756
19 2 14.2253 1.69038 1.93058 -2.21125 -1.74544 5.43681
80 3 16.1111 3.45304 1.6617 -2.55872 -0.403602 2.9438
918 2 16.0226 1.98446 3.61488 -1.51936 -0.802826 2.43274
977 1 14.0821 3.55065 3.72831 -3.56243 -2.51141 -0.407969
77 3 14.2339 3.52942 0.00826151 3.59313 0.580633 1.48053
18 3 16.1769 1.77779 0.159626 0.260893 -3.35745 -5.10414
20 1 16.0399 0.0212371 2.03233 -2.15776 -0.393927 8.49531
81 2 17.8586 3.58036 -0.0382308 5.3922 -0.129127 1.53165
23 3 17.8544 1.65529 1.84057 -4.74677 1.34968 -1.02844
981 3 17.9913 3.35832 3.50889 -6.03533 1.82501 8.48023
27 3 21.5631 1.50015 1.84299 4.92873 1.33063 -2.50401
84 3 19.8991 3.44139 1.71696 0.431271 0.35396 1.08384
922 2 19.8479 1.59008 3.70605 -3.05037 -0.099125 -2.19898
985 3 21.495 3.34856 3.62675 1.4864 6.35745 -1.86483
85 3 21.4367 3.42257 -0.00581351 -0.534341 -1.57911 3.06
921 1 17.8366 0.0266846 3.67533 1.60726 -1.2668 4.93929
31 2 25.1574 1.5874 1.68678 -2.15409 -1.94861 1.52071
88 1 23.3943 3.49293 1.84936 -7.80786 -5.18039 1.15921
926 3 23.2863 1.54913 3.59676 -9.19602 -2.09402 1.99545
989 2 25.0239 3.45112 3.43313 2.65333 -2.91681 6.44361
26 3 23.1861 1.59945 0.0389351 7.02909 -1.32602 -6.18016
89 2 25.1269 3.3134 -0.0231627 -2.26389 -3.66777 0.654175
929 3 25.0226 0.0249385 3.67714 -2.73651 -2.02986 -0.567232
29 2 24.9802 -0.0722004 -0.0185984 -1.32061 -0.268517 1.95347
32 1 26.7138 -0.0997436 1.65059 -0.604165 -1.35845 -0.451825
67 1 3.64383 5.01453 1.80665 -3.1533 -2.24308 2.88974
124 2 1.66388 7.10209 1.89389 -2.0797 2.4789 -3.89815
962 2 1.4816 5.15563 3.52884 -4.03392 -2.67594 -1.23287
1025 1 3.45012 6.79735 3.55906 -0.805927 0.0554479 6.16595
1021 1 -0.0396119 6.99057 3.7488 -1.39741 -0.820375 2.86239
125 3 3.63452 7.01638 0.123724 -5.96113 3.24357 -1.31108
62 2 1.74688 5.28742 0.129208 -1.17575 -0.173925 2.90739
121 1 0.0281013 7.09213 0.0532346 -2.49697 -4.95236 -5.32744
122 1 1.63923 8.81424 0.0731264 -0.570444 0.916478 -0.598644
127 2 3.61205 8.73837 1.83564 -0.187722 1.57139 0.278424
71 1 7.28263 5.16489 2.00251 -3.02466 -4.27289 -0.497626
128 2 5.34402 7.0998 1.82364 3.53767 -1.62121 -0.56662
966 2 5.24505 5.22203 3.35348 -3.49201 0.645191 -0.813273
1029 1 7.19197 6.8599 3.42033 2.42956 0.753642 3.21329
129 2 7.19063 7.03213 0.0759541 3.33706 -4.53071 -0.990341
66 2 5.35332 5.27468 0.128091 -0.725189 2.13331 -0.897122
131 1 7.20729 8.81974 1.94794 -1.58117 2.79206 -0.717024
70 2 8.72105 5.20306 0.0186706 0.773564 -0.121725 -3.14834
1026 3 5.34667 8.72094 3.81732 -1.6627 -5.86545 0.571019
126 1 5.57186 8.83828 0.118336 -2.90473 -1.50566 -2.88716
970 2 8.91223 5.2687 3.52103 -1.3863 -4.88941 -0.240102
132 1 8.95412 7.14166 1.70321 1.60753 4.48666 4.3568
75 2 10.669 5.19948 1.78054 6.98536 -2.00108 -3.94788
136 1 12.3913 7.03882 1.61827 -2.61817 -0.722711 0.746859
974 2 12.4507 5.28955 3.73921 3.69485 -2.69491 -0.492249
1033 1 10.6819 7.05524 3.63658 -1.22166 3.41497 3.30319
74 2 12.4783 5.21001 -0.00626677 -1.28558 4.12918 -4.22218
133 2 10.682 6.9364 0.0246473 -3.12724 -3.88899 -2.58705
1034 2 12.2787 8.80335 3.74562 7.60799 2.661 1.84968
134 1 12.4778 8.64798 -0.0599636 1.46377 0.87875 3.64903
79 2 14.2822 5.24446 1.7964 1.72924 -3.72783 5.89679
140 1 16.0781 7.04264 1.77707 0.950155 -2.00278 -0.124385
978 2 16.0702 5.15368 3.48192 -0.565778 0.606969 -0.605953
1037 1 14.3121 7.09577 3.40307 -1.1518 0.957342 -0.00217754
137 2 14.2038 7.038 -0.0904727 3.35052 -6.0643 -0.765634
78 1 15.9806 5.26494 0.062825 -6.51345 2.24367 -3.31072
138 3 16.0141 8.83939 0.0550403 -2.76348 2.57657 0.875803
1038 2 16.1551 8.65409 3.55209 -3.4449 0.654725 0.59952
141 3 17.7024 6.80357 0.0421531 -2.99373 1.11962 -2.2278
139 2 13.9941 8.81791 1.60725 2.76803 -2.86555 6.93434
1041 3 17.8922 6.91318 3.56782 -1.09267 5.25487 -3.52484
83 3 17.9446 5.09034 1.73556 -0.111405 -4.30064 4.94881
87 3 21.6737 5.24925 1.7077 -1.03208 1.42959 -1.09254
144 3 19.6172 6.75495 1.75184 3.17255 -2.39528 -1.86243
982 3 19.7844 5.1722 3.59506 0.824798 1.84698 -1.9011
1045 3 21.3297 6.98342 3.62427 -4.72418 3.89368 -2.02868
145 3 21.515 7.01767 0.0826205 -3.00512 -1.34731 0.146377
147 3 21.4558 8.73364 1.74739 4.69314 1.79016 2.40734
82 1 19.5407 5.28467 -0.095788 -6.84497 -2.64071 -0.523494
143 3 17.9735 8.79358 1.66414 -4.14435 -2.42544 3.43308
1042 3 19.7109 8.79214 3.58278 -2.22553 -5.05642 0.240474
91 3 25.1134 5.23747 1.7645 -4.437 -0.0963779 -3.04737
148 1 23.4656 6.95431 1.71777 3.94467 -0.293083 -3.82492
986 3 23.12 5.20648 3.63531 0.944766 -2.69729 -0.602455
1049 2 25.222 7.04959 3.56062 -2.0233 2.4696 0.500226
151 1 25.1106 8.73408 1.9391 0.518277 1.51965 -0.644378
1046 3 23.3556 8.71524 3.47262 -4.08384 -2.98123 -1.19241
146 2 23.244 8.71971 0.0205864 0.475062 1.32479 -4.82779
86 2 23.3963 5.1671 0.0807878 -2.29028 -0.815222 6.49047
149 2 25.1326 6.90201 -0.100125 0.145247 0.349922 2.83148
1022 3 2.00415 8.86097 3.50431 0.947958 5.37157 -1.89442
184 1 1.71498 10.7074 1.77969 0.929898 -3.19845 0.399508
187 2 3.45559 12.2383 1.84276 -4.25539 4.98102 -0.503215
1082 3 1.79076 12.4318 3.70371 1.16625 5.12008 0.601812
1085 3 3.60775 10.702 3.77551 7.15225 3.15152 3.25044
1081 1 -0.00255532 10.5512 3.45217 0.687376 2.35542 -2.57903
185 3 3.54072 10.4301 0.0232567 2.41115 0.267505 -2.74442
183 2 0.158563 12.4248 1.78971 0.255837 2.51204 0.240618
182 1 1.83362 12.3109 -0.0663039 -1.635 1.63883 2.99291
188 1 5.42359 10.4754 1.81725 0.0519978 -5.77027 4.28885
191 2 6.99351 12.3316 1.72573 1.09011 -5.94429 0.767157
1086 1 5.59938 12.5032 3.37901 -2.29819 1.40436 -0.250218
1089 2 7.12365 10.6001 3.73662 6.594 -4.16013 0.580051
190 3 8.85229 12.3317 -0.05958 7.19857 3.72691 1.3093
186 1 5.35156 12.1741 -0.0117101 2.81009 -1.78161 -6.15096
192 1 8.7843 10.7275 1.75882 -1.80159 2.06686 -1.51634
1090 2 8.83389 12.4054 3.50226 -1.2023 0.11151 1.31565
189 2 7.09199 10.4158 -0.0843063 -0.885802 0.95888 3.64856
1030 2 9.10236 9.00658 3.62113 -3.11653 4.07639 -2.24156
130 3 8.93533 8.85762 0.0657692 -1.45405 -3.06493 -2.60532
135 2 10.7891 8.94135 1.82027 -7.15722 -3.10808 -2.11271
195 2 10.7597 12.5037 1.81992 3.12829 2.74038 -3.21259
196 1 12.5403 10.6907 1.67982 -3.87504 2.44012 2.00175
1093 1 10.9968 10.7034 3.5598 0.485363 3.5846 -3.33286
1094 2 12.4715 12.5967 3.35823 2.73377 3.02148 1.1901
194 3 12.5456 12.4932 -0.061445 5.77337 1.9565 -4.20968
199 1 14.3821 12.3829 1.77072 -1.69548 -2.52114 3.48659
200 3 16.087 10.456 1.86465 5.1725 -2.75862 0.158408
1097 3 14.1919 10.548 3.55183 1.6667 -3.45928 -2.39181
1098 2 16.0638 12.1952 3.8141 0.423687 3.24773 3.78261
198 1 16.1301 12.3837 0.090174 2.38991 -1.80305 0.212664
201 2 17.74 10.5965 0.0279393 1.92642 0.112567 -2.06679
197 2 14.417 10.6696 0.163807 -1.86635 -11.5934 -0.152197
1101 3 17.7541 10.4763 3.79287 -1.00341 -0.522484 -4.12183
142 3 19.8285 8.88641 -0.000138301 -1.10542 -1.1386 -5.5271
203 1 17.995 12.2323 1.88076 -8.71893 -1.98434 -4.1838
204 3 19.932 10.4868 1.79757 -4.8913 -2.15021 0.760418
207 2 21.4086 12.5129 1.88543 -3.93415 2.75041 0.00352719
1102 1 19.7051 12.3606 3.87186 0.206105 3.26972 1.36528
1105 3 21.5813 10.6205 3.50894 -5.68051 2.53988 3.6561
202 3 19.7362 12.1927 0.0222441 -1.63701 1.01297 -1.895
205 1 21.5364 10.5946 0.0804163 0.244276 -0.669804 4.16282
208 2 23.2973 10.5368 1.81771 -1.57948 -1.46892 0.335304
211 2 25.0914 12.3144 1.81967 1.31151 3.44254 5.72891
1106 1 23.3027 12.4756 3.492 3.06119 0.539939 2.18225
1109 1 25.0938 10.6066 3.47539 3.86291 5.28041 1.45079
206 3 23.2219 12.3258 -0.0310457 -2.37101 2.0636 -6.3365
209 3 25.2435 10.6302 0.0805068 6.75881 -0.458251 -1.14463
244 2 1.90944 14.1086 1.86563 -0.438865 3.50435 2.45522
247 2 3.58579 15.9846 1.82101 0.0170534 -4.12262 -4.58758
1142 3 1.92791 15.9568 3.54788 -3.80895 2.92539 -1.59639
1145 1 3.79855 14.1405 3.50824 -2.17345 -5.29251 -0.725021
242 1 1.73354 15.8471 0.145192 -2.44467 2.38992 4.34821
243 2 0.0854592 16.0402 1.85877 2.58687 -0.216205 -3.38632
241 1 0.194495 14.1119 0.102339 -2.69375 2.67222 0.959891
1205 2 3.60892 17.7912 3.55937 -0.186132 3.30662 -3.47464
245 1 3.59974 14.1276 0.0802335 -4.10255 -3.04504 5.80791
1141 1 0.165092 14.1783 3.6948 5.11368 -3.39936 -2.03935
304 1 2.02919 17.724 1.67839 -2.6348 -3.2667 -0.875881
248 2 5.42461 14.358 1.78124 6.86721 3.10456 5.80926
251 2 7.22589 15.961 1.9454 -0.102624 -0.909155 3.03001
1146 3 5.3742 16.1528 3.59757 -0.529194 3.38414 -3.98966
1149 1 7.13859 14.3485 3.58363 1.83221 0.212229 2.116
246 1 5.36577 16.0484 0.00413793 -2.21723 2.27281 0.020377
249 1 7.06438 14.1612 0.131388 0.928415 -1.67356 4.25918
250 3 8.85665 15.9901 -0.0243638 2.10917 1.5471 -1.62798
252 1 8.99032 14.0991 1.96731 3.73986 -0.27671 0.433349
1150 2 8.98227 16.0963 3.86062 -1.39416 -2.3575 -0.311139
255 2 10.7548 16.0976 1.86697 -5.42997 0.111283 2.58856
256 2 12.5765 14.3589 1.64231 -0.443998 1.15271 3.73614
1153 1 10.6371 14.343 3.60151 -3.41107 2.42446 0.00634329
1154 1 12.5448 15.9672 3.65017 -7.8158 2.70728 -2.0896
253 1 10.6726 14.3698 -0.0819638 0.237369 -3.14273 -0.589091
313 2 10.8166 17.7077 0.0329724 0.127857 5.2614 0.273623
316 2 12.5513 17.65 1.8243 2.39114 -4.29008 2.67845
259 1 14.3124 15.8261 1.93095 3.92896 3.18756 -0.908305
260 2 16.0164 14.0599 2.00736 -0.392581 -4.52714 -2.99514
1157 1 14.3429 14.3316 3.7432 3.22573 0.291101 3.88644
1158 2 15.9926 16.1542 3.67036 1.477 2.41501 5.30764
258 1 16.0956 15.7982 0.102883 -2.26737 -0.539452 2.85289
257 2 14.3931 14.1366 0.00555494 -2.37178 -1.62851 -0.168506
261 2 17.7445 13.8844 0.0912096 0.754572 -1.41567 2.00759
320 2 16.0474 17.5937 1.71978 2.48145 3.12342 0.43474
1161 2 17.7545 13.9124 3.81023 2.85661 -6.27977 -0.168448
317 2 14.3345 17.6667 0.0281227 4.68368 -1.46583 4.0238
263 1 17.777 15.894 1.94446 2.53111 -1.7955 5.87911
321 3 17.8631 17.5862 0.0273536 1.94919 0.714465 -5.34191
1221 1 17.8483 17.7603 3.53225 1.74549 2.37547 3.77502
264 2 19.5585 13.9868 1.94669 -5.63063 3.93722 -2.68485
267 1 21.3302 16.0531 1.7778 0.105536 -1.93405 1.86792
1162 2 19.5372 15.7688 3.45989 -3.29924 1.36638 1.93104
1165 1 21.5096 14.1923 3.47507 2.11755 1.10219 2.45301
324 2 19.6161 17.7733 1.84242 -1.62834 0.516656 3.2289
265 2 21.5286 14.2668 0.056608 2.48727 3.67195 3.49885
1225 2 21.3638 17.65 3.38768 0.231627 -3.08897 -0.980351
332 1 26.641 17.6967 1.87385 4.03966 0.633015 2.79862
268 1 23.4091 14.1254 1.68186 2.09676 1.7695 -1.56721
271 2 25.0321 16.0045 1.80258 2.2532 -1.12004 2.48266
1166 2 23.1557 15.9857 3.28736 1.93589 -0.11308 1.28149
1169 2 24.9681 14.1463 3.63099 2.74624 -0.791574 5.48992
266 2 23.4067 15.9975 -0.0580483 1.75903 1.16662 -2.8147
269 1 25.2535 14.1665 0.0424198 -6.54389 -10.9694 0.114024
1229 2 25.0452 17.5138 3.46999 -1.11326 1.74808 -1.61682
328 1 23.0915 17.7313 1.61595 -2.03247 -2.57638 0.055765
1201 2 0.0924779 17.9549 3.59332 -3.99894 -2.62077 -4.61503
305 2 3.69206 17.9892 -0.0658809 -0.597746 -1.99195 -5.06805
307 2 3.63404 19.5891 1.98682 -6.82419 1.15285 -1.66572
364 2 1.65875 21.3582 2.01689 1.49906 0.131832 7.00625
1202 1 1.80204 19.4391 3.66215 -1.23749 1.53053 -4.26055
1265 1 3.45944 21.349 3.5556 -2.20248 3.61271 0.93393
303 2 -0.0758336 19.6009 1.70419 -2.77319 -0.564567 -5.16895
302 1 1.67882 19.6584 0.0172026 1.63174 -3.06339 -3.13984
1261 2 0.106316 21.1363 3.53413 1.20812 -3.66392 -5.51501
309 2 7.2934 17.8201 -0.0334288 -0.029662 -0.420118 -1.54384
308 1 5.3191 17.9139 1.82332 -1.81721 -1.84759 -2.74494
1209 1 7.22232 17.8574 3.58421 -3.79139 1.87396 -0.219178
311 2 7.27836 19.5309 1.72499 -2.22526 3.84306 2.70511
368 3 5.38175 21.3006 1.88073 -7.1642 2.11403 -0.320013
1206 2 5.34469 19.6471 3.76378 -1.35622 6.95089 -2.41361
1269 3 7.20701 21.5981 3.68795 -4.21054 1.48844 -4.00288
306 1 5.27735 19.5722 0.121752 -0.117029 2.08703 -4.38523
369 2 7.31415 21.3413 0.0221055 -1.12434 -0.681226 8.34804
1213 1 10.7459 17.809 3.64962 4.40132 0.296098 -9.61606
312 1 9.05094 17.8222 1.96129 1.71182 -2.61918 5.81028
1210 2 9.06967 19.6166 3.61289 -3.11775 -2.71904 -2.50106
372 1 9.01229 21.2203 1.69785 1.05809 4.45403 -0.362956
315 2 10.8128 19.6708 1.64963 3.53945 3.78258 0.771476
376 2 12.6678 21.499 1.76696 -5.30496 -4.87318 -2.22261
1214 1 12.5519 19.6619 3.53231 3.71766 1.46539 -1.42344
1273 1 10.685 21.4577 3.56668 3.81048 -0.289206 2.35802
373 2 10.8499 21.5174 0.00723322 -1.17875 -0.589861 2.39636
310 1 9.17896 19.4778 0.177342 1.90454 0.640605 -0.0605529
1217 3 14.2379 17.8315 3.67034 1.57738 4.75178 -3.09224
319 1 14.172 19.5321 1.83108 -2.57986 3.20311 -3.11573
380 3 16.1623 21.4136 1.93136 4.10328 -0.0334428 -2.14777
1218 3 16.2327 19.5172 3.54943 0.780962 -1.46324 1.75422
1277 3 14.3066 21.4176 3.58022 -0.939592 -4.6168 -2.08986
318 3 16.225 19.526 0.072174 -2.70094 -5.93875 -2.96607
377 2 14.4153 21.4027 0.100016 1.59025 -3.57985 0.778247
381 3 17.808 21.3922 0.0558737 2.97737 -3.16221 0.754394
323 3 17.964 19.6743 1.8712 4.69363 -3.73385 -2.50019
1281 3 18.0601 21.2994 3.51731 4.72889 -3.38217 -0.715848
327 3 21.4664 19.5475 1.59763 6.01073 1.9254 -2.18731
384 1 19.8081 21.511 1.80414 -1.70316 -0.12003 -2.1045
1222 1 19.7601 19.6533 3.65882 2.56399 4.37423 3.75107
1285 2 21.4969 21.4533 3.61999 1.46938 7.99906 -4.28791
322 3 19.7147 19.4265 0.0614611 1.78312 3.98407 2.1546
331 2 24.9321 19.5064 1.6776 -2.55225 -1.79957 1.39347
388 3 23.2216 21.2919 1.66455 1.77385 -2.92359 -0.554408
1226 1 23.1904 19.5873 3.57805 8.98593 -2.30084 -1.4432
1289 1 25.2006 21.3155 3.58657 0.846221 1.08679 -4.37022
389 1 25.0253 21.1308 0.0561901 -5.32794 1.17489 2.09736
330 3 26.7032 19.337 -0.0335421 5.1622 6.76652 0.339843
367 3 3.64235 23.1046 1.75609 6.43307 3.38512 0.123759
424 2 1.64619 24.8654 1.71463 1.90753 4.10428 -0.244776
1262 1 1.76724 23.1608 3.38858 1.99445 5.00727 -7.10256
1325 3 3.47339 24.8719 3.63615 3.5279 1.62388 1.11529
425 3 3.63684 24.9007 -0.0829801 -6.00877 -1.27531 -0.806659
362 1 1.80361 23.199 0.0462022 2.70184 -1.46122 1.22963
423 2 -0.0521495 26.7205 1.64336 -5.0606 2.38405 -1.8897
1321 1 0.0432035 24.963 3.5919 -0.618718 2.80536 3.54504
422 3 1.73555 26.6056 -0.0121674 4.72778 0.650347 0.0848805
427 3 3.38393 26.7028 1.75395 -4.78663 -1.8084 1.52971
363 3 -0.0165001 23.1147 1.78559 -2.09314 -1.47806 3.05105
371 3 7.27302 22.9702 1.72398 -4.12019 -5.50078 0.38806
428 3 5.21143 24.9229 1.79726 0.418566 -0.723295 0.413278
1266 3 5.46003 23.1917 3.52472 4.96181 3.27616 2.7284
1329 3 7.17973 24.9863 3.59009 2.06803 -1.1393 0.149817
431 3 6.92265 26.7049 1.76797 -3.75175 1.79744 4.66981
429 3 7.09937 24.8824 0.212946 0.944329 2.03255 -5.21203
1326 3 5.26992 26.6178 3.53283 -1.77885 -5.23825 0.52827
430 1 8.8447 26.5347 0.089815 1.4178 0.616893 -1.49352
432 3 8.77407 24.8442 1.91919 -3.58554 0.298406 -0.946376
1270 3 9.05078 23.1913 3.53793 -1.47956 2.91131 0.925974
435 3 10.6648 26.7124 1.84075 -6.04955 1.68474 1.91008
375 3 10.6666 23.23 1.74593 -0.911156 2.44645 0.443626
436 1 12.4156 24.9371 1.80047 -1.40705 3.4612 0.263176
1274 2 12.3851 23.228 3.66078 -4.27668 -0.691902 1.70464
1333 3 10.7941 24.9558 3.88159 1.18675 -3.40183 -1.75442
1334 2 12.5628 26.658 3.63029 2.60658 -1.27344 -1.70405
434 2 12.5358 26.4717 0.118272 1.85339 -1.31477 -1.03593
433 2 10.6723 24.9636 0.132692 -5.09883 -3.86815 -3.18588
374 3 12.4606 23.3494 -0.00301882 2.59352 2.30571 3.47528
379 1 14.2837 23.3835 1.77196 -2.83176 1.50478 -2.30831
440 2 16.2853 25.1056 1.765 -0.519192 4.6262 -0.556812
1278 2 16.0883 23.263 3.48197 1.50048 -0.266692 2.86924
1337 1 14.2163 24.8681 3.54641 -0.33634 1.9711 -0.946233
439 2 14.282 26.6581 2.08447 0.612464 -3.10854 4.69815
438 1 16.1679 26.7261 0.0119205 -0.0397093 5.0672 -1.23125
437 1 14.5403 24.9909 -0.0872307 -0.261879 3.48393 0.850755
378 3 16.355 23.2434 0.108304 -1.01221 -1.66563 1.72782
441 1 17.8422 25.0395 -0.0915574 4.90705 2.87474 -2.68617
1341 3 17.941 24.9468 3.52549 3.1388 1.80232 1.64808
383 3 17.9538 23.1057 1.7909 1.143 2.57385 3.17908
387 1 21.3964 23.2033 1.77242 -3.25461 1.22438 1.48555
444 2 19.5624 25.0237 1.75284 -1.74342 -2.52953 0.747605
1282 2 19.5825 23.213 3.5396 1.08952 -3.76331 2.66183
1345 1 21.4987 24.774 3.52162 8.20522 3.78928 -5.12914
445 1 21.4771 24.7788 0.0288159 -0.590987 -1.61415 -2.93261
447 3 21.5119 26.5225 1.74767 2.98608 1.87144 -1.65451
443 1 18.0075 26.6859 1.78947 -1.88822 3.20788 -1.18093
1342 1 19.9106 26.5847 3.82217 2.04778 -4.2265 3.76979
382 2 19.6516 23.0714 -0.0442539 -2.0374 -6.03348 3.50128
451 1 25.1812 26.6964 1.66253 -2.06623 -3.0284 -2.43058
391 1 25.228 23.0956 1.72156 3.76489 -6.52112 4.48705
448 2 23.3363 24.871 1.87469 -1.18078 0.896449 -5.23088
1286 2 23.2887 23.11 3.52711 2.7331 4.70282 -2.23175
1349 1 24.975 24.8897 3.50583 1.82294 -1.01586 1.92039
449 1 25.1071 24.9374 -0.0109157 6.85374 -1.04849 -0.551033
1346 2 23.3171 26.7012 3.52191 3.32167 2.96639 0.0888478
446 2 23.1806 26.6353 -0.0552971 -3.0086 1.62619 -0.865307
386 2 23.3909 23.2277 0.0992959 3.40501 0.355676 -4.61106
1861 2 -0.113324 3.46013 7.23325 -2.06624 0.351794 2.19536
907 2 3.68928 1.5992 5.15598 5.96144 -0.366592 1.58933
964 1 1.68558 3.39623 5.47339 5.79427 -5.35173 -1.40198
1802 1 1.65262 1.65438 7.09099 5.28431 3.91405 -1.62413
1865 3 3.62159 3.50852 7.25535 -4.02611 7.1345 0.159415
903 2 0.0681524 1.60115 5.30396 -0.748088 -2.12195 6.12692
1801 1 0.102391 0.0814319 7.09859 1.244 2.59639 2.94471
911 3 7.11774 1.69717 5.54792 1.60059 -3.00369 4.80881
968 3 5.46854 3.48508 5.42965 0.334708 -2.08578 -0.494747
1806 3 5.26687 1.67081 7.21607 -1.15451 -0.738314 -0.203315
1869 3 7.17114 3.51481 7.30413 2.05998 2.73126 -1.19386
908 3 5.28303 -0.0757388 5.35145 4.24864 -0.691937 -3.57741
1809 2 6.93882 0.0783301 7.09631 -2.13478 3.54065 -2.24979
912 3 8.98797 -0.0657927 5.35314 1.4339 -3.37805 -0.0583446
972 3 8.84523 3.39707 5.33027 -2.28503 -0.92115 0.171754
1810 3 8.91322 1.70932 7.12118 -6.96892 -2.30807 -0.70571
915 3 10.7437 1.70139 5.30822 2.44195 -4.82234 -0.9836
976 2 12.4174 3.63003 5.50927 -2.57464 -1.15791 -0.35776
1814 3 12.5312 1.65022 6.94731 -0.631268 -4.52078 -3.73955
1873 3 10.7148 3.54887 7.18773 -5.03233 -0.412517 -1.14575
1813 3 10.6467 -0.0974153 7.03483 0.24086 3.40235 2.05725
919 3 14.451 1.59521 5.37988 2.83255 2.4955 1.69535
980 2 16.1497 3.677 5.35889 -3.2741 -1.97715 2.45886
1818 1 16.0301 1.83605 7.04118 -0.433137 -8.48056 -3.98323
1877 2 14.5969 3.46914 7.15387 -3.34194 0.33658 0.563418
923 1 17.7773 1.74262 5.43249 1.93862 0.091007 -1.9345
1821 2 18.0252 -0.065884 7.05016 2.25001 -5.33797 -3.56475
1881 2 17.9119 3.60474 7.09563 -7.72866 0.645782 -3.08923
927 2 21.5649 1.55757 5.37443 -0.707412 2.49341 -0.219239
984 3 19.6963 3.29078 5.46744 -2.81805 -0.74302 -0.231466
1822 1 19.7081 1.73064 7.16577 -0.301772 0.737716 3.45638
1885 1 21.5255 3.76239 7.04496 -0.57822 2.5962 4.03971
924 1 19.7101 0.0295972 5.41022 -1.19493 -4.82464 0.0822249
1823 2 18.0289 1.91708 8.81059 0.123778 3.33651 -4.22466
1830 2 26.536 1.72742 7.21128 0.637021 2.08469 3.6838
992 3 26.6796 3.49951 5.39304 -0.11686 -4.47107 1.54863
931 1 24.9491 1.6461 5.60559 4.14733 7.61591 -0.229605
988 3 23.2482 3.53413 5.33117 -1.96051 -3.18407 3.66526
1826 2 23.2273 1.68777 7.18197 2.50579 1.59617 2.82614
1889 2 24.8958 3.58729 7.22386 -1.92017 3.2127 -1.05829
963 1 0.0475588 5.14684 5.3775 -3.40931 2.40033 -2.18284
1921 1 0.114665 6.78073 7.29975 0.382545 -2.04882 4.79849
967 3 3.44805 5.16049 5.34176 1.17628 -1.69542 1.7096
1024 2 1.73804 6.92803 5.25552 3.17841 3.77313 -1.12634
1862 1 1.75384 5.04512 7.14369 -3.02125 -3.92457 3.89909
1925 3 3.46063 6.94263 6.97248 -1.80158 0.0591165 -3.28471
1027 3 3.50632 8.75186 5.36317 -2.47092 5.17186 -4.9275
1922 3 1.77099 8.66666 7.14959 -1.80057 -3.61566 -0.752852
971 3 7.17442 5.29804 5.44472 -5.06861 -1.37535 2.67938
1028 3 5.31108 7.00284 5.36694 1.30795 1.40804 2.58793
1866 3 5.3736 5.33029 7.02936 -2.69545 1.65023 -2.68483
1929 3 7.21003 6.98307 7.16853 -2.52449 -0.669444 3.39555
1926 3 5.28433 8.73669 7.29877 -3.14185 -0.974884 -3.69653
1870 3 8.88479 5.03379 6.93353 -6.69543 0.0243443 1.04325
1032 1 8.85628 7.06317 5.4708 -1.01347 -0.649422 0.589174
975 3 10.6666 5.36096 5.478 2.67066 1.43654 5.64237
1036 2 12.4059 6.93718 5.28541 5.73547 0.76974 0.632251
1874 1 12.6354 5.28412 7.29885 0.416338 6.70732 0.101858
1933 2 10.7287 7.10146 7.35522 4.04077 2.02206 1.18049
979 1 14.4171 5.21386 5.45888 -3.41649 -4.3756 0.376266
1040 2 16.1679 6.99042 5.40878 -0.302366 -1.67744 5.59846
1878 3 15.9455 5.35951 7.21887 0.0539237 -0.600433 -0.361444
1937 2 14.1505 7.04844 7.08183 -1.52245 4.3645 0.926787
1039 1 14.0819 8.8043 5.46797 7.4024 -0.558485 -0.778619
1941 2 17.6637 7.1123 7.11558 -6.86034 -2.59879 -0.673262
1938 3 15.9792 8.81694 7.1356 -1.14593 -4.52061 0.918032
1043 3 17.9862 8.69728 5.57968 -3.83404 2.06326 -1.65457
983 1 17.9208 5.18084 5.21526 0.0328561 -5.86642 1.19941
987 2 21.3174 5.42879 5.52082 -2.45671 2.47855 3.97142
1044 1 19.5131 6.92216 5.47129 1.69517 -3.20036 0.169234
1882 1 19.6905 5.40752 7.31627 -1.23356 4.25543 2.99444
1945 1 21.5104 6.98992 7.21685 -0.290196 3.18492 3.25139
1942 3 19.627 8.76502 7.3243 0.00377914 -3.45549 0.285599
1047 3 21.3059 8.5252 5.54427 2.59816 1.27249 -0.649838
1890 1 26.5598 5.18307 7.18131 2.63469 -3.51141 1.53091
991 3 24.8707 5.19656 5.28185 5.13855 0.83411 -4.21181
1048 3 23.3144 7.09916 5.297 -3.84873 2.87081 1.48035
1886 1 23.2277 5.15066 7.13812 -0.773054 2.91176 0.60268
1949 2 24.7576 6.9371 7.32135 0.0734712 -2.38477 -1.67772
1051 3 25.1457 8.78116 5.55826 2.56775 3.16004 2.54127
1052 1 26.6314 6.83097 5.33992 -1.31521 -4.99696 -6.53401
1946 2 23.2816 8.80414 7.17607 -4.0469 -5.0109 3.92843
1023 1 0.130327 9.00258 5.40294 1.13895 3.64299 -1.8867
1083 1 -0.070661 12.2605 5.45603 -2.22243 2.19914 0.188564
1084 2 1.67686 10.6406 5.25733 -2.40082 -0.459648 -0.990535
1087 3 3.45358 12.4177 5.47588 1.30878 0.290529 -3.20351
1982 1 1.73011 12.4546 7.10552 -5.39778 1.42254 0.642219
1985 3 3.48807 10.6448 7.10018 2.54507 -3.79951 0.191645
1981 2 0.0261724 10.5814 7.215 2.12549 0.333982 1.85264
1031 3 7.20166 8.87219 5.59814 2.00189 -3.15879 -11.3841
1088 3 5.46877 10.5142 5.50616 -1.77405 -1.90678 0.74817
1091 1 7.39542 12.329 5.2938 -0.421032 7.72594 7.31306
1986 3 5.35165 12.3708 7.32782 -4.04637 4.56309 -2.78903
1989 3 7.172 10.6751 7.14122 2.87304 -4.78858 1.83192
1934 1 12.411 8.93945 7.31614 0.69004 -3.63167 -4.17949
1990 2 9.06492 12.245 7.188 -2.35801 -1.96971 3.62748
1092 1 9.06802 10.5469 5.35528 0.718293 0.0279689 4.06446
1930 2 9.04755 8.96767 7.2558 2.12445 -6.58194 5.19744
1035 1 10.7557 8.86773 5.50983 1.28492 -4.71134 -3.25877
1095 2 10.7265 12.5299 5.38822 -0.00675895 1.52687 -1.81724
1096 2 12.4869 10.7536 5.5098 -5.50304 -2.64526 -9.62332
1993 2 10.8877 10.5564 7.36462 -1.56688 -3.91366 1.53593
1994 1 12.5422 12.5228 7.2114 2.39794 -4.84878 4.48781
1099 1 14.3302 12.4232 5.41611 -2.38166 1.40941 0.531625
1100 1 15.8234 10.5377 5.21562 2.79841 -2.42067 0.692359
1997 2 14.273 10.753 7.28612 -6.77685 -1.92606 -0.760064
1998 3 16.2151 12.1275 7.11976 4.31586 -0.764758 3.54354
1999 2 14.4436 12.2341 8.81669 -1.82965 -1.21541 -3.61614
2001 2 17.8344 10.3984 7.2068 -1.70733 3.95202 4.05509
1103 3 17.9911 12.1868 5.49615 1.76826 -3.90508 -0.367751
1104 3 19.8116 10.6923 5.33558 -2.80588 -1.82133 0.58101
1107 2 21.7001 12.2602 5.4273 4.28192 2.33658 -2.88506
2002 3 19.8124 12.3335 7.31887 -2.596 1.74141 -1.61514
2005 3 21.4076 10.4031 7.26664 1.72748 -0.98476 4.46799
1108 1 23.0998 10.4286 5.50526 0.0479139 -1.02639 4.59769
1111 2 24.8416 12.2856 5.29949 4.64305 0.0106437 2.59
2006 1 23.2685 12.3521 7.31062 -1.09511 0.321118 2.51003
2009 2 25.1259 10.6934 7.12662 -0.8976 -8.02231 -1.46479
1144 2 1.94867 14.3348 5.38162 -3.35953 2.35577 4.43389
1147 1 3.70373 15.9763 5.43891 -0.344231 -1.5636 0.78446
2042 3 1.77391 15.9315 7.20129 0.836274 3.89002 0.75401
2045 3 3.70421 14.272 7.16841 -3.79303 -4.36064 -2.1095
1143 1 0.130664 16.2656 5.30859 -5.74905 3.66674 -2.63331
2101 2 -0.0370093 17.7421 7.17797 0.459448 1.82575 -3.1247
1204 1 1.96919 17.6862 5.4255 -3.43448 -2.74076 -2.01096
2041 2 -0.0496906 14.1978 6.95767 4.85836 0.213148 0.234485
1148 3 5.38078 14.2413 5.41063 3.12996 -3.92828 3.15144
1151 2 7.12764 16.2101 5.33794 7.74059 5.15352 -3.79372
2046 3 5.38804 16.1727 7.15551 0.796021 -2.81614 -2.17251
2049 3 7.23843 14.3017 7.16407 6.51113 2.14464 0.189453
1152 1 8.77644 14.1776 5.43498 0.889089 -0.986381 2.56659
2050 2 8.86529 16.2995 6.93515 -1.30258 0.0459491 2.5905
1155 1 10.6855 16.0323 5.43036 2.31588 5.1078 -7.75576
1156 2 12.5229 14.1858 5.42441 5.91635 -2.12985 1.36317
2053 1 10.7516 14.231 7.16263 -0.0854103 -1.05263 -2.9976
2054 3 12.6113 16.1364 7.15659 1.13295 1.82699 3.24231
1216 2 12.3961 17.7257 5.27528 2.51301 1.29084 0.906715
2055 3 10.7536 15.9839 8.83703 1.4485 0.360913 1.0836
2052 2 9.05952 14.2572 8.80071 0.80809 3.17878 -1.86147
1159 3 14.4281 16.0478 5.4031 -2.76047 3.86272 2.94304
1160 1 16.2663 14.263 5.59595 1.85434 2.01919 0.612129
2057 3 14.47 14.2071 7.17842 0.464181 -4.94064 1.77667
2058 2 16.2876 16.0683 7.228 1.50038 -2.23647 -0.479644
1163 1 17.9126 15.8957 5.3404 -4.1161 3.69132 -5.66496
2061 3 18.0828 14.0788 7.13021 -1.8538 -1.1554 1.62388
1164 3 19.7208 14.2645 5.36137 -0.280563 3.1622 4.89516
1167 2 21.5493 15.879 5.27849 -0.00759465 1.08383 2.25873
2062 1 19.8915 15.9135 7.14916 1.94203 6.88061 0.486888
2065 3 21.5056 14.1591 7.11231 1.92953 3.09365 -0.213626
1224 1 19.8431 17.7126 5.15324 -0.709637 2.89159 3.58925
2125 1 21.6789 17.5616 7.00957 -6.96031 -0.288434 2.41446
2124 2 19.8653 17.5199 8.83983 -3.61325 -2.57258 0.379468
2121 2 17.9227 17.6352 6.88392 1.47498 -0.236791 5.53576
1168 1 23.2611 14.0887 5.25738 0.640991 -2.01755 -0.571331
1171 1 25.0894 16.1573 5.3331 -4.36424 -0.232244 4.73298
2066 2 23.5185 15.8642 7.17654 -7.35797 4.03571 4.34289
2069 1 25.0944 14.1191 7.15641 0.0633661 -1.73407 0.68383
1228 1 23.3114 17.6314 5.10279 -1.23531 -4.96285 -2.55882
2129 2 24.9385 17.7626 7.06101 0.413279 0.528382 0.837546
2105 3 3.61745 17.9467 7.23415 1.10623 3.15068 -0.829957
2161 1 -0.0240824 21.4148 7.03972 -1.15917 -1.75611 -1.62821
1203 1 0.141037 19.592 5.52157 -2.09677 2.66144 -1.20196
1207 3 3.64927 19.7135 5.35461 -3.20442 1.27816 3.06769
1264 2 1.99986 21.4113 5.39574 0.701266 -4.87428 -1.44825
2102 3 1.857 19.6997 7.23232 2.7313 -4.80907 -2.14928
2165 3 3.75934 21.4324 7.28513 1.91994 -4.07941 -1.36599
1208 3 5.26315 17.9264 5.49671 -1.72087 5.33807 0.734923
2109 3 7.10621 17.979 7.22956 2.32037 3.10765 0.437166
1211 3 7.0953 19.7189 5.42403 -1.42479 2.49464 -1.84684
1268 3 5.31735 21.4924 5.33937 3.5271 -0.349542 1.7614
2106 3 5.31869 19.7721 7.25955 -2.98967 4.7421 3.23952
2169 3 7.09738 21.5703 7.26371 -1.76148 0.515371 0.361738
1272 3 8.89855 21.3111 5.43535 3.76158 -1.11875 1.30495
2113 1 10.8313 17.9093 7.18961 0.792666 4.28471 1.07413
2110 3 8.88508 19.5678 7.15012 1.75432 -4.0785 3.70646
1212 1 8.98472 17.9732 5.22298 2.66893 -1.3341 0.000435588
1215 2 10.8381 19.7093 5.35212 2.65636 1.1328 -4.48293
1276 1 12.4279 21.3799 5.46435 -3.4218 -0.666535 -1.77513
2114 3 12.5736 19.3402 7.30156 0.176227 -3.13981 -4.53955
2173 3 10.5541 21.2032 7.2532 2.95211 -1.71609 2.72911
1220 1 16.2862 17.9546 5.2424 1.33041 -2.83538 1.96966
2117 1 14.6318 17.8231 7.12536 1.20097 -1.04146 -2.53518
1219 2 14.0833 19.5764 5.44182 -1.31975 0.379573 0.56046
1280 3 16.1614 21.327 5.17339 -3.34623 -1.00388 7.45636
2118 1 16.2101 19.7396 7.02399 3.68858 -1.61752 -2.06011
2177 1 14.1875 21.4366 7.30426 -2.35118 -0.645503 -3.19471
2120 3 16.2528 17.8992 8.82772 1.07442 -4.39796 -3.22304
1223 2 17.8639 19.5665 5.48402 1.28674 -1.25391 -1.9123
2181 1 17.9719 21.379 6.9856 -3.26403 -3.24237 -3.72035
1227 2 21.632 19.4473 5.22461 1.25162 3.72729 -0.968408
1284 1 19.7177 21.404 5.54171 -2.11341 -1.99622 1.62795
2122 2 20.107 19.2388 6.9767 0.444702 -1.70891 -1.56488
2185 1 21.4819 21.3987 7.15921 -0.345065 3.18589 0.779715
2123 1 18.0751 19.6202 8.73906 3.65768 6.79039 -2.62574
2184 2 19.7386 21.3656 8.80306 -6.11739 -0.104533 0.403387
1231 2 25.0604 19.6418 5.47577 2.89302 0.28799 2.65889
1288 1 23.2158 21.3894 5.33494 3.11624 -0.518614 -5.93137
2126 1 23.3389 19.7364 7.05594 3.63045 -3.00274 -0.407241
2189 1 25.1319 21.4048 7.03875 -0.476092 -3.53836 0.990586
2131 1 25.2977 19.5979 8.73556 -3.62686 -0.521235 -1.70493