ITEM: TIMESTEP
180000
ITEM: NUMBER OF ATOMS
13500
ITEM: BOX BOUNDS pp pp pp
-2.3781626993248040e-02 5.3543781626972645e+01
-2.3781626993248040e-02 5.3543781626972645e+01
-2.3781626993248040e-02 5.3543781626972645e+01
ITEM: ATOMS id type x y z vx vy vz
7 1 3.40534 1.9908 1.5467 2.41795 -1.75999 0.335704
64 2 1.62877 3.6289 1.76401 0.454343 -2.55928 1.83152
902 2 1.55459 1.87455 3.29054 2.40202 -4.54345 0.904758
965 1 3.48212 3.63577 3.45986 1.14968 -0.679067 -3.11957
4 1 1.68897 0.123957 1.57425 -0.38438 -0.701035 5.14928
905 2 3.55179 0.262285 3.35877 -1.01211 -2.24467 -1.99623
11 2 6.97289 1.88068 1.47752 0.38533 2.21193 -0.0443394
68 2 5.25341 3.60276 1.56757 3.0817 2.06127 3.51828
906 1 5.25072 1.89023 3.44971 -1.17575 -1.35277 0.275943
969 1 7.04602 3.64691 3.51101 -2.15378 -1.88187 -3.44321
8 1 5.26727 0.235392 1.55021 -0.175111 1.36366 -0.444261
909 2 6.99183 0.0922406 3.37048 0.523427 0.78142 0.872872
72 2 8.86956 3.60822 1.65937 0.590037 0.66437 -0.316971
910 1 8.57492 1.71008 3.41113 -0.237763 -1.39213 -0.598125
12 1 8.83896 0.100196 1.66813 -2.98471 0.564703 -1.1082
15 2 10.65 1.86938 1.68064 0.123458 0.0720734 1.2625
76 1 12.4213 3.73615 1.46904 -0.64841 -2.07791 -0.933976
914 1 12.4479 1.78661 3.36998 -0.668452 2.78799 3.06918
973 1 10.7437 3.52527 3.42334 -0.93511 -1.02167 -1.87289
913 2 10.6133 0.201896 3.5339 -0.414521 5.46479 -1.72538
19 2 14.1388 1.68009 1.72411 0.964315 2.46571 1.40345
80 3 15.9492 3.55872 1.64369 -1.60694 0.378757 3.32475
918 3 16.0159 1.84442 3.40867 -2.03103 1.73548 -0.0463854
977 3 14.2172 3.55242 3.3725 -3.4266 0.230421 -2.3566
981 3 17.7043 3.50745 3.30789 5.60176 -0.442452 2.37489
23 3 17.7486 1.80526 1.54555 2.36157 0.254587 0.732993
20 1 16.0777 0.100241 1.5812 0.953765 -2.84553 2.03136
921 3 17.9332 0.133749 3.40177 1.82844 2.45966 -0.849911
27 3 21.2853 1.97422 1.4817 -4.54227 3.73819 0.425735
84 3 19.5075 3.58184 1.56406 4.1144 2.71196 -1.71011
922 3 19.7147 1.90266 3.32103 3.93257 -0.173155 1.69487
985 3 21.3406 3.80575 3.3484 1.14839 -0.273535 -0.212111
925 3 21.4591 0.120205 3.27894 2.30719 -0.11644 -1.35784
24 3 19.4523 0.00209313 1.51905 -1.04298 4.50255 -3.02078
31 2 24.9914 1.90401 1.46727 4.79179 2.96981 0.585224
88 3 23.0325 3.74945 1.46881 1.00785 -0.0950891 -1.80407
926 3 23.1346 1.94212 3.33535 1.11196 2.3718 -4.00494
989 3 24.8836 3.56514 3.30796 0.67466 3.45212 0.881402
28 3 23.1427 0.140339 1.47926 -3.55706 -1.69576 0.970583
929 2 25.0122 0.11312 3.33668 -2.44 1.27736 -0.28552
32 1 26.5693 0.0620489 1.66486 -2.18479 0.363393 -2.93178
930 1 26.7345 1.83009 3.18952 -2.77149 -0.456796 0.706943
67 3 3.36457 5.41878 1.51393 -2.56149 -0.254247 3.02607
124 3 1.69357 7.31411 1.51724 -3.05497 -5.16194 -0.220093
962 2 1.62227 5.60364 3.45156 -1.67372 -1.37112 -1.00393
1025 3 3.44195 7.19196 3.36477 -2.60697 -0.435064 1.05055
71 1 6.9933 5.43568 1.70574 1.08485 2.08859 1.36745
128 3 5.28718 7.16192 1.62023 0.0982587 3.22413 0.378135
966 2 5.15474 5.50229 3.33585 -1.7361 -2.93399 0.775277
1029 3 7.05486 7.2494 3.37782 1.75449 -1.44668 -3.81364
132 2 8.86946 7.09814 1.70552 2.55313 4.10126 1.1036
131 2 7.04379 8.88734 1.56694 -3.18302 1.44004 -3.6033
970 2 8.74929 5.33679 3.46687 -7.23131 -2.88994 -4.29618
75 1 10.4808 5.23979 1.594 1.7148 -1.61214 0.577929
136 1 12.3598 7.12194 1.74106 -1.48492 0.594179 -2.51918
974 2 12.5762 5.43879 3.33533 0.303659 -3.4817 5.42354
1033 1 10.6845 7.08702 3.33667 -0.688405 -1.95271 0.779817
79 1 14.2763 5.34603 1.57163 -4.80073 1.39743 -2.69063
140 3 15.9301 7.29157 1.65986 -0.915813 -2.5355 0.812329
978 2 15.8095 5.41493 3.38547 1.30703 -0.857708 -0.235652
1037 3 14.0698 7.24641 3.36669 2.25799 1.50797 2.1882
83 3 17.6184 5.33916 1.71096 2.71709 1.0393 0.350313
1041 3 17.7664 7.09797 3.31318 -0.631545 1.5227 2.24574
87 3 21.4018 5.54968 1.63056 -1.2464 -1.79966 0.418016
144 2 19.4515 7.12169 1.49694 -1.10266 -0.100162 -3.08959
982 3 19.5132 5.33687 3.33295 1.81225 1.57659 1.40255
1045 1 21.3373 7.20516 3.24574 2.40024 0.93193 0.0878541
147 2 21.2042 8.78541 1.64515 -0.443711 -2.86982 -1.41348
91 2 24.9043 5.5415 1.52761 4.66701 2.44144 1.81375
148 1 23.1476 7.20632 1.43124 -2.05715 0.766212 4.24658
986 2 23.226 5.35325 3.29334 -0.297501 -2.98444 -4.64163
1049 3 24.9143 7.23787 3.27795 1.69548 3.00927 -2.23526
152 1 26.6824 7.0712 1.56986 0.913597 -0.782454 2.31994
990 3 26.676 5.37909 3.48621 1.86401 2.22452 1.75603
1022 3 1.68274 9.06959 3.26389 -0.101039 0.637459 -0.559101
127 3 3.47746 9.00546 1.5858 -1.55527 -2.87492 1.29275
184 3 1.72468 10.862 1.5448 0.239617 -0.93695 0.721486
187 1 3.51931 12.681 1.6254 0.950429 -1.29199 1.36174
1082 3 1.76192 12.5664 3.40408 0.254166 0.818685 -3.75928
1085 3 3.52896 10.7924 3.29185 -2.40366 -4.47327 0.685537
1026 3 5.18277 8.94387 3.27035 3.00781 -1.20406 1.54289
188 3 5.34164 10.7365 1.49585 -0.79986 -2.41465 0.356478
191 3 7.03708 12.6108 1.53847 -0.344057 -3.41199 -0.552841
1086 3 5.24848 12.5899 3.33388 0.65396 -2.14436 -2.71586
1089 3 6.96699 10.7523 3.18185 0.485987 -0.0460588 2.62421
192 1 8.67872 10.7205 1.56077 -0.480926 4.83587 -0.894124
1090 3 8.88419 12.5038 3.39935 0.346158 -2.02608 0.00650804
1030 1 8.81593 9.06909 3.42287 -1.16736 2.11941 -0.946549
1034 1 12.4066 9.13529 3.31705 -0.958666 2.28635 6.40849
135 2 10.6063 8.99792 1.62828 -0.910197 -3.6695 2.94989
195 3 10.7301 12.5222 1.60944 -1.91045 -2.9269 1.48119
196 1 12.3477 10.7409 1.48281 -0.0819791 -1.84394 1.00094
1093 2 10.707 10.719 3.4215 2.86397 -2.86279 -2.45112
1094 1 12.3837 12.5771 3.42744 1.52689 -1.43543 -1.68468
1038 1 15.9165 8.96745 3.37074 -0.356776 -2.53077 -1.62727
139 2 14.1757 9.07807 1.54541 -1.57764 2.7324 -1.52164
199 2 14.1599 12.5578 1.53123 3.73241 1.52401 -1.0694
200 1 16.0461 10.7668 1.57759 -4.02176 -1.51938 -5.03224
1097 2 14.2179 10.7416 3.51617 1.83594 -1.33664 -2.13368
1098 2 15.9531 12.5963 3.40787 1.06093 -1.88558 -1.45726
143 1 17.7612 8.97483 1.68071 -0.99535 -1.00549 -3.96073
1101 2 17.6658 10.8285 3.52039 1.76851 -3.29556 3.20625
203 2 17.7723 12.5425 1.64069 -2.03893 4.17187 -0.836302
138 2 16.0163 9.04497 0.0177352 2.69596 -1.05353 -1.47128
1042 1 19.4593 9 3.35522 -1.15341 -0.478531 0.556087
204 3 19.4731 10.806 1.56869 1.63601 -0.647479 -3.77941
207 2 21.2741 12.5383 1.44834 -1.36497 2.16371 1.06439
1102 1 19.5062 12.5657 3.31448 0.337777 -4.70347 -3.91559
1105 1 21.2401 10.7112 3.33091 2.60097 0.341826 -1.79787
1046 2 23.064 8.96254 3.26974 0.416079 1.90781 3.00097
151 2 24.9715 9.0502 1.45026 -2.74781 -2.04874 -2.14541
1050 3 26.5983 8.91586 3.30956 -0.544654 0.0317121 3.87408
208 1 23.0692 10.6763 1.64092 -3.8524 -4.73302 -3.61172
211 2 24.868 12.4922 1.41936 1.67021 -0.639995 0.884595
1106 1 23.0695 12.5328 3.17692 -0.316161 1.37916 1.55694
1109 1 24.879 10.9027 3.27918 2.77538 4.39447 1.35276
212 2 26.6419 10.7116 1.53719 2.96492 -0.125396 3.3849
1110 2 26.7566 12.5773 3.28274 3.22254 1.31738 0.303679
244 2 1.72106 14.283 1.58607 0.993397 -0.937269 -1.38362
247 3 3.48708 16.2022 1.50567 0.634627 -0.714907 -1.12419
1142 1 1.83761 16.159 3.32723 -1.91304 2.8005 -0.645891
1145 2 3.43727 14.4354 3.37241 -7.91688 0.491481 -0.344354
304 2 1.76853 17.81 1.55391 0.0765165 3.99961 2.49209
243 1 0.0518128 16.0591 1.50632 1.48484 -3.72108 -1.68365
248 3 5.2415 14.4047 1.54552 1.33567 -0.709946 -0.0473624
251 3 7.13751 16.0325 1.49965 -2.65674 -0.293188 0.349356
1146 3 5.29325 16.1048 3.34988 0.349206 -0.0601454 2.8535
1149 3 7.03049 14.3121 3.42333 -4.73736 2.62829 0.549351
1150 3 8.94515 16.1031 3.33747 0.658128 0.301458 -1.93712
252 3 8.98808 14.3322 1.80466 -0.00324997 -0.0585844 2.06637
255 1 10.7197 16.0237 1.6442 1.2778 2.39696 1.39198
256 2 12.5212 14.4121 1.49055 1.48162 1.33087 -3.04551
1153 2 10.6273 14.4218 3.63352 0.503991 -3.37185 1.87392
1154 1 12.4871 16.1542 3.33951 1.26147 -0.146198 -2.60076
259 2 14.1823 16.1759 1.72063 -3.28907 -2.70768 4.45271
260 1 16.0267 14.4274 1.48277 -3.57439 0.396352 -1.62999
1157 1 14.2909 14.2283 3.2855 -1.02275 -1.71039 -0.695335
1158 2 16.0156 16.0938 3.43682 0.645094 -1.35655 -0.110839
263 1 17.7238 16.0865 1.56286 1.12255 1.94902 0.432534
1161 2 17.8214 14.3238 3.37376 -1.24874 0.645396 -0.411841
264 1 19.6835 14.4834 1.47027 4.11998 2.5067 3.20481
267 2 21.2691 16.2078 1.61927 -0.834871 0.804074 -2.25941
1162 1 19.439 16.2171 3.55292 -0.495195 0.203881 0.96578
1165 2 21.281 14.1552 3.45468 -1.98277 5.80872 -6.40137
324 2 19.5647 17.7967 1.76181 -5.27136 -2.59707 -0.830353
268 3 23.0749 14.457 1.6644 -3.6622 -5.34295 -4.13884
271 3 24.9366 16.2721 1.5792 -1.05447 3.81145 -4.0727
1166 2 23.0796 16.11 3.44776 0.135609 1.23134 1.46299
1169 1 24.965 14.2596 3.28399 -4.38849 -0.398092 -1.41256
1170 3 26.6504 16.1717 3.44693 -0.317648 -2.06026 0.164417
272 1 26.6387 14.4174 1.68052 3.39122 -0.735054 1.34916
1205 3 3.53898 18.0559 3.37746 -0.161872 -0.0810305 -3.9782
307 1 3.47921 19.7683 1.4966 -2.72258 -4.90805 -1.47178
364 2 1.84656 21.382 1.41472 -1.48638 3.45092 1.89906
1202 1 1.66474 19.5266 3.37784 -0.0305471 0.502849 2.2804
1265 1 3.33191 21.4008 3.36546 3.16081 2.35823 1.36724
1209 3 7.14582 17.9963 3.20657 5.34693 1.63695 -5.69216
308 3 5.24345 17.9697 1.5525 2.07829 -0.51836 0.817519
311 3 7.09646 19.7686 1.55417 -2.13519 -0.561157 -1.38725
368 3 5.28292 21.4347 1.47534 1.98118 3.67203 2.29383
1206 2 5.28996 19.7037 3.41225 -1.69164 3.26579 1.93577
1269 3 7.06231 21.3864 3.38664 0.382309 1.56596 1.74401
372 3 8.8061 21.5206 1.5322 -0.190095 1.18108 -4.05057
1210 3 8.83324 19.7123 3.32951 -1.66341 -1.77313 0.179373
312 3 8.883 17.9041 1.60616 -3.43738 2.21707 3.67773
1213 2 10.5133 17.9013 3.43456 -0.783768 -1.61449 -4.10776
316 2 12.368 17.9786 1.67173 1.16056 -2.66206 -0.109937
315 3 10.4806 19.756 1.57892 -0.157149 1.93183 -2.23479
376 2 12.4345 21.4311 1.61268 1.0384 -0.771194 -3.17024
1214 1 12.3547 19.6172 3.29684 0.483692 -2.08156 -6.15799
1273 3 10.628 21.507 3.28076 1.25133 1.44366 -2.29878
320 2 16.0634 17.8836 1.63558 -3.69893 -3.94112 -0.728368
1217 1 14.2644 17.9834 3.30699 2.21251 -1.29262 -0.512476
319 1 14.1535 19.6038 1.58656 -0.0399792 -0.919977 1.67516
380 1 15.9311 21.4261 1.50655 0.20125 -2.02907 -1.4916
1218 2 16.0429 19.7485 3.35091 -3.90019 -1.37408 0.567042
1277 2 14.1994 21.4322 3.35374 0.22715 -3.54703 -2.03966
1221 1 17.6989 17.8835 3.25526 1.72477 -5.13097 1.83934
1281 2 17.8749 21.413 3.27739 0.653011 1.66192 -3.84836
1225 1 21.3488 17.9144 3.57382 -3.76998 -2.8108 2.35649
323 1 17.9331 19.7712 1.4252 0.428372 1.27461 1.62204
327 3 21.3124 19.5846 1.57944 3.46652 0.492791 -0.976758
384 1 19.7002 21.6044 1.54124 3.47937 -3.86197 0.924411
1222 2 19.547 19.5277 3.44259 -1.62988 1.91039 -0.953792
1285 3 21.2728 21.3266 3.33351 0.343697 -2.94826 -0.4374
332 3 26.7356 17.9669 1.58781 1.089 -2.91392 0.983488
328 3 23.0576 17.8909 1.69368 -1.46252 0.285946 4.69562
1229 3 24.8139 17.8902 3.43871 4.62861 -4.33848 -0.787709
331 3 24.9592 19.6673 1.66446 0.0237701 2.21105 -0.0310331
388 3 23.127 21.5281 1.54174 3.92326 0.808346 2.53492
1226 3 23.0464 19.6818 3.36138 2.20822 -1.75165 3.18802
1289 2 24.9021 21.5125 3.28521 0.173482 1.30806 -0.0231297
1230 3 26.569 19.7479 3.34673 -1.59191 1.0225 0.694029
392 1 26.7046 21.5945 1.58577 -1.46634 4.33764 0.309657
367 2 3.48163 23.3171 1.57995 0.465668 -1.82003 -0.965441
424 3 1.74525 24.976 1.52681 -4.67888 0.419303 0.743152
1262 1 1.55378 23.2136 3.19515 -0.976054 -3.18939 0.632979
1325 3 3.50681 25.0783 3.38573 0.652128 0.775541 -1.24788
427 3 3.41124 26.7501 1.53065 1.90576 -0.249982 0.706328
371 3 7.00891 23.2199 1.67742 2.93968 0.979042 4.35038
428 3 5.2029 25.0502 1.61747 -2.79594 1.30843 0.606555
1266 3 5.30878 23.2834 3.36293 -0.575372 3.78313 1.04502
1329 3 7.09056 25.1084 3.30413 -2.17416 0.076102 5.06591
1270 3 8.82056 23.2439 3.25104 0.711864 -3.20329 2.91258
432 3 8.62214 25.0884 1.56299 0.451032 -0.130104 -4.30171
375 3 10.5869 23.2726 1.50697 -1.64279 -4.52658 -2.37912
436 1 12.2674 25.0619 1.7857 -0.373567 1.70736 0.948805
1274 1 12.4085 23.2806 3.31956 -1.33529 0.481003 -1.5217
1333 3 10.4234 25.1803 3.40646 0.838804 -4.05999 -1.36079
379 2 14.2054 23.2768 1.68995 -2.9348 -2.59936 0.453994
440 3 16.0376 25.1255 1.65006 1.52646 -0.640653 -1.05597
1278 1 16.0111 23.164 3.45564 0.478116 -0.114263 -3.38427
1337 1 14.0887 25.2307 3.29071 1.73174 3.62535 3.89543
383 2 17.7223 23.2827 1.62643 -0.110986 -0.777572 2.47436
437 3 14.1376 25.1158 0.0374158 2.67724 1.10624 -1.10168
1341 3 17.8503 25.0328 3.4163 -1.03076 0.793676 -0.164091
387 2 21.4756 23.4206 1.45319 2.42213 -2.39608 2.10008
444 3 19.4762 25.0995 1.50316 -1.93118 2.53851 2.5538
1282 3 19.4246 23.2684 3.38151 -1.0034 -0.410516 -1.60755
1345 1 21.3844 25.0552 3.39323 1.17327 -2.43855 -1.0988
391 2 24.9572 23.2421 1.66193 4.39562 2.38256 1.77892
448 2 23.0806 25.3448 1.54163 3.00033 1.12119 -4.14194
1286 3 23.0296 23.2203 3.26915 -0.592499 -3.23584 0.342008
1349 1 24.8131 25.1464 3.53137 2.45546 0.647117 0.721385
452 2 26.6256 25.1756 1.57838 1.14736 -2.36938 -1.9073
1290 1 26.5527 23.3057 3.51252 -2.49347 -0.385115 -0.0629566
907 2 3.52898 1.86487 5.10497 2.22572 3.21989 -0.799953
964 2 1.65161 3.58361 4.98 0.554905 -7.75808 4.23199
1802 1 1.6921 1.81597 6.86671 3.51168 3.97472 -2.88831
1865 3 3.38921 3.63931 6.97775 1.74662 1.68004 0.423788
1804 3 1.5573 0.196216 8.84608 -1.04378 -0.210263 -1.8003
1864 3 1.65648 3.68457 8.72582 -0.36883 -0.640737 -3.24974
1805 2 3.36316 0.0904389 6.9442 3.17216 2.5982 -3.67714
1807 3 3.30273 1.81967 8.67013 -5.13331 -3.91241 -2.35255
904 1 1.71724 0.121831 5.21547 -2.57266 4.5697 2.64381
911 2 6.97191 1.8688 5.2875 2.73792 1.06194 0.760826
968 2 5.15618 3.72595 5.16521 1.33863 0.559364 -0.494308
1806 1 5.12445 1.84934 6.85572 2.03798 0.41235 -2.14856
1869 1 6.85418 3.61414 6.92301 -1.67458 -3.47041 -0.391691
1868 3 5.07259 3.63533 8.74727 2.02443 1.63997 4.26588
1811 2 7.02921 1.82809 8.74299 2.72229 1.82685 0.988278
1808 1 5.20059 0.0706222 8.72122 -2.80791 0.157506 1.91903
972 2 8.84825 3.63589 5.21727 1.07561 4.00011 1.43536
1872 1 8.74479 3.60562 8.72405 -2.51368 1.98976 -0.0296221
1810 1 8.70952 1.87736 7.05389 2.34474 1.10225 0.839802
912 1 8.76723 0.124904 5.35006 -2.52181 3.3603 -2.59224
1812 1 8.88118 0.105877 8.87196 -1.25806 0.275967 -4.28061
915 1 10.5252 1.8477 5.24435 2.72377 -0.244444 3.54397
976 2 12.4063 3.63546 5.02394 4.04735 -4.62941 -1.41413
1814 1 12.3318 1.95499 6.92445 2.79483 0.0629139 -5.97125
1873 2 10.5383 3.69973 7.01751 2.37301 -5.49622 1.37839
1876 2 12.4488 3.59238 8.63826 1.06974 -0.663023 -1.2674
1815 1 10.534 1.88211 8.74301 4.4752 0.232799 -0.00267585
1816 3 12.4218 0.133794 8.73597 0.107307 -0.711382 2.31038
916 2 12.3509 0.0153439 5.34409 -1.90226 1.30799 1.9436
1813 2 10.6013 0.176097 7.08992 0.533571 -3.38635 0.488077
919 3 14.1226 1.87166 5.26121 -0.205246 1.54252 -0.0596585
980 3 15.953 3.65128 5.15239 0.0138836 -3.75682 0.614996
1818 3 16.0296 1.92964 6.82212 0.192273 -0.475346 -4.79223
1877 1 14.242 3.62508 6.97097 1.88916 -1.21755 5.40978
1819 3 14.3114 1.93515 8.6734 -2.4953 0.405715 -0.540768
923 3 17.8071 1.80234 5.04156 2.54863 -4.19053 -3.31199
1820 3 15.992 0.118421 8.72562 -4.48524 -2.16789 -1.53759
1881 3 17.7669 3.62221 6.84196 -1.30935 0.47569 -0.18502
1823 3 17.8198 1.87214 8.76083 -0.242746 0.714193 4.27823
920 3 16.1136 0.0734295 5.15386 -2.78335 0.813799 -0.828224
1821 3 17.8268 0.188342 6.83695 3.22842 -1.26916 0.590439
1880 1 16.0818 3.64931 8.8141 1.52852 1.8471 -5.8633
1817 3 14.2022 -0.0201902 6.96154 1.47928 1.48964 -1.45101
927 3 21.4152 1.81162 5.0853 -3.11802 -0.624124 0.326347
984 3 19.501 3.53424 5.04129 -0.424725 -0.0742845 -2.03523
1822 3 19.5266 1.94486 6.83558 -0.403734 -0.85767 -1.25994
1885 3 21.2996 3.67342 6.98406 0.191107 -1.62749 5.3322
1827 3 21.3351 1.80471 8.62601 -1.68123 -0.990999 1.43219
1884 3 19.52 3.56706 8.65775 3.71743 5.25488 2.20395
1824 3 19.6142 0.0166649 8.7056 1.61631 -2.7526 -0.445009
1825 3 21.248 0.0998965 6.86848 1.48692 -1.54749 1.42699
924 3 19.625 0.00830611 5.04986 -0.564018 -1.54416 -1.96709
931 3 25.0374 1.70118 5.25055 1.52924 -0.861623 -0.977874
988 3 23.2068 3.61707 5.05896 2.25727 -0.329694 2.24807
1826 3 23.19 1.82083 6.90414 1.5642 -2.4925 -0.681659
1889 3 24.9843 3.59639 6.82183 5.56017 2.03094 -1.00774
1888 3 23.0569 3.47527 8.67812 4.15718 1.44319 1.18061
928 3 23.2649 0.0898394 5.23678 -0.490209 0.739516 -0.134248
1831 1 24.9232 1.87405 8.76185 -3.73552 -1.29131 -0.676601
1892 3 26.6645 3.57885 8.74912 -3.01885 -0.811031 3.71451
1830 2 26.6799 1.58329 6.97625 1.00535 -0.846904 0.771489
992 2 26.7252 3.63035 5.13692 -0.484084 -1.00732 -0.696465
1829 2 24.889 0.0791864 7.08452 -2.76423 3.35801 -1.46116
1832 1 26.6197 0.104285 8.79138 -6.19261 1.12006 1.75853
967 1 3.41447 5.42879 5.18175 -4.18479 3.99755 -0.770693
1024 2 1.58066 7.32372 5.12685 -0.326691 -1.12164 1.98145
1862 3 1.62212 5.46123 6.82242 -1.76096 -4.7436 1.37836
1925 3 3.40996 7.17005 6.96663 -1.04365 1.65911 0.215962
1924 3 1.68949 7.20615 8.74321 -1.05987 0.701864 1.26517
1867 2 3.42396 5.36776 8.6772 -0.799493 -0.834845 2.35078
1921 2 -0.0221256 7.30197 6.89155 -0.102341 -0.220925 3.56605
971 1 7.10606 5.37263 5.28893 -0.645922 0.100275 4.35685
1028 3 5.19583 7.2731 5.03285 0.958054 0.463958 -3.18925
1866 3 5.23711 5.40985 7.00148 -3.22476 -1.91906 1.27945
1929 3 7.05495 7.15046 7.08211 -0.909883 -2.55662 1.37775
1928 3 5.20559 7.16964 8.82764 -1.41735 5.11372 3.70775
1871 2 7.08493 5.28204 8.77572 -0.522299 -4.56676 -0.204464
1870 1 8.83213 5.43131 7.08637 1.44926 -1.49555 -1.70744
1032 2 8.80333 7.20756 5.14263 -0.160852 0.62901 -2.88456
1926 3 5.27436 8.832 6.87201 -0.24654 1.76245 -3.40645
1932 1 8.852 7.0909 8.84176 -0.838338 -0.436326 -2.93398
975 1 10.6084 5.41224 5.14928 -0.100166 -4.21832 0.685373
1036 2 12.2609 7.22117 5.20281 0.726055 1.84365 1.4036
1874 1 12.4326 5.32049 6.90075 0.178451 1.86266 -0.724689
1933 2 10.5715 7.0642 6.949 -6.95765 -2.24777 -0.278348
1875 2 10.4884 5.44516 8.83726 0.277191 0.849673 0.361956
1936 1 12.4341 7.13834 8.66659 1.63109 -1.08 1.95151
1935 2 10.6356 8.78363 8.70786 1.57386 0.526213 -1.99292
1934 1 12.4713 8.87826 6.88662 -1.10756 2.57443 -1.92238
979 1 14.0888 5.38938 5.24289 -3.36687 -1.48004 -2.45423
1040 1 15.9177 7.22196 5.26555 -2.06064 -2.26814 -0.873791
1878 3 15.9839 5.386 6.91172 1.24244 -0.923918 1.01515
1937 2 14.1399 7.10208 6.97911 0.396677 -3.78266 -2.53002
1940 1 16.0641 7.15362 8.77275 -2.43084 -1.80208 -1.86241
1879 2 14.0756 5.33754 8.86529 -0.641249 -1.91509 1.59755
983 3 17.8003 5.40225 5.10869 0.0574648 2.62573 -0.325387
1883 2 17.6559 5.35067 8.78307 2.70237 0.271643 -2.27083
1941 1 17.8808 7.12919 7.00126 -1.36705 -0.534251 -1.3423
987 3 21.3458 5.31785 5.11593 -1.41201 1.3881 -0.460988
1044 2 19.6877 7.22287 5.0316 2.15763 -0.187249 4.43369
1882 1 19.5406 5.45789 6.99457 -0.338513 -0.76832 6.20006
1945 2 21.3227 7.10101 6.77525 -0.475641 -0.993989 -0.577444
1887 2 21.2761 5.37675 8.70446 1.64776 0.78305 2.25834
1944 2 19.6747 7.28472 8.56483 2.79768 0.350823 -0.489529
1942 1 19.6461 8.87412 6.8686 -2.50714 2.50217 -1.59696
1047 1 21.391 8.82096 4.93745 2.35026 -3.71926 -4.70142
991 3 24.9632 5.42589 5.04429 -2.67864 -3.51422 0.670336
1048 3 23.1729 7.00213 5.01556 -4.6804 -0.00270836 0.657794
1886 3 23.1935 5.29014 6.88586 1.23964 -4.15193 -0.323856
1949 3 24.8755 7.03283 6.84619 1.59343 1.57562 -3.23856
1891 3 24.8956 5.31434 8.75441 3.80706 -0.244 -2.2827
1948 3 23.0386 7.04295 8.67862 0.718254 -0.356099 -1.5413
1890 3 26.6936 5.38358 6.92897 2.41223 1.11606 1.32216
1950 3 26.5607 8.83508 6.9315 0.286812 0.774377 -3.14898
1946 1 23.1751 8.77474 6.84603 2.35299 0.286528 0.0257141
1951 2 24.771 8.86316 8.68543 3.80328 -0.0834446 0.763394
1051 3 24.9782 8.85203 5.10167 0.501853 -3.10163 -0.993782
1952 3 26.7235 7.13609 8.60121 -3.84245 0.86005 -2.22885
1981 2 0.0105727 10.88 6.9209 -0.0125944 -0.313074 -1.12028
1927 3 3.47816 8.99623 8.56893 -0.0212308 0.0108946 -0.756921
1922 1 1.70885 9.07096 6.79441 -1.76461 -0.487862 -1.99438
1027 3 3.53916 8.98096 5.18286 0.0321343 -0.140281 -1.04719
1084 2 1.66529 10.8357 5.15196 1.30407 -1.76893 -3.0533
1087 3 3.52138 12.4693 5.12561 0.0788975 1.9385 1.37275
1982 1 1.73005 12.6189 6.95202 -0.130761 3.90451 -1.52901
1985 3 3.57135 10.8556 6.86786 0.602123 0.222417 -0.610288
1984 2 1.80508 10.6746 8.67525 1.68877 -3.65827 3.1028
1987 2 3.45935 12.6578 8.8402 -0.0488742 1.86962 -4.23979
1923 1 0.100846 8.92791 8.67014 -1.47717 0.277372 2.13176
1983 2 0.0634702 12.4944 8.75078 2.77734 -0.4285 2.31337
1031 3 7.08435 8.95363 5.20528 -0.991156 0.5078 0.478235
1931 3 7.06819 9.01139 8.70945 1.88387 -3.85455 -0.56103
1088 3 5.31594 10.7271 5.20907 0.682842 -0.395129 2.34694
1091 3 7.2193 12.5576 5.10207 -5.38456 1.66225 -0.824714
1986 3 5.25836 12.4868 6.94446 -1.58937 0.95572 2.66519
1989 3 7.04794 10.8163 6.90779 1.2937 0.36154 2.1753
1991 3 7.10502 12.5624 8.60676 0.92639 5.50277 1.96055
1988 3 5.22909 10.8258 8.73248 0.760338 3.61862 -3.36103
1930 3 8.80682 8.94772 7.04779 -4.27201 -1.52125 -0.932028
1035 1 10.7353 8.92709 5.21426 1.39486 4.1816 0.0573836
1990 3 8.96848 12.5624 6.98178 -0.327429 -0.588182 -4.28657
1992 3 8.96979 10.7104 8.73386 -3.48587 -4.36328 0.26302
1092 2 9.02636 10.6835 5.16547 0.434738 -2.82451 -4.14707
1095 1 10.6128 12.4795 5.2578 -0.400406 -0.96234 2.00378
1096 2 12.3047 10.8061 5.34642 -1.68245 -2.59899 0.0547078
1993 1 10.6701 10.6246 6.98887 0.202377 -0.0883844 3.00761
1994 1 12.2629 12.7294 7.0352 1.22667 -2.38959 -2.64931
1995 2 10.6001 12.5201 8.61079 1.42244 0.0141676 3.82805
1996 2 12.4512 10.7106 8.7922 -2.19142 -2.56693 -0.593681
1039 1 14.2056 8.98555 5.15019 -3.04119 2.80573 -0.695449
1939 1 14.3084 8.95718 8.82213 -0.0996447 0.88235 0.0514584
1938 2 15.8595 8.95037 6.91589 -0.57835 -0.100625 -0.306023
1099 1 14.1766 12.4474 5.3268 -4.60468 1.27967 2.69988
1100 1 16.0512 10.8551 5.14167 -2.74801 -0.229478 -0.881902
1997 2 14.1985 10.8569 6.95943 -0.495492 -2.62221 1.34127
1998 2 15.9799 12.5858 6.97096 0.809051 -2.82445 0.162288
2000 1 16.0013 10.7339 8.65192 -1.27093 -1.12226 -4.08123
1103 1 17.8084 12.6665 5.17179 1.47177 -2.3546 -0.144095
1043 2 17.7992 8.97102 5.08961 -0.254292 -9.21598 0.680538
1943 2 17.7265 8.94692 8.40558 3.99958 -0.709909 -3.2953
2003 1 17.6889 12.5586 8.75255 0.000423111 1.60125 -3.06789
1999 2 14.2047 12.4781 8.78145 -0.82975 -2.98044 -3.35525
2001 1 17.7963 10.709 6.98771 -2.04595 -1.73764 -1.00443
1947 2 21.5355 8.90777 8.66367 -4.79561 -1.40214 2.67329
1104 2 19.4989 10.7593 5.10583 1.28099 -0.580846 0.347192
1107 1 21.3188 12.5821 5.17632 0.431824 0.15036 -3.3198
2002 2 19.5633 12.6083 7.01744 -0.430138 -0.441639 -0.0976289
2005 2 21.2323 10.6178 6.74989 0.409293 -1.7822 -4.46197
2007 2 21.206 12.417 8.79037 -2.69466 -3.66205 -3.18499
2004 1 19.5381 10.6322 8.73149 -3.77848 -1.25478 0.520365
1108 2 23.1775 10.616 5.04864 -1.1595 0.148615 2.74661
1111 1 24.827 12.5694 5.1256 2.2001 3.15973 -0.854216
2006 1 23.0239 12.455 7.03643 -2.89148 2.35574 -0.233029
2009 2 24.918 10.656 6.90891 0.123882 1.64307 -1.23417
2011 2 24.9281 12.5597 8.77426 -3.16711 -6.26964 2.7033
2008 1 23.1398 10.6164 8.64143 1.03437 -0.176454 0.918601
2012 1 26.6787 10.6764 8.69301 1.48006 2.83219 2.75061
2010 1 26.6545 12.503 6.95272 -1.92434 -1.47599 -0.270645
1144 3 1.72492 14.4703 5.06893 3.88814 0.790964 1.82784
1147 2 3.602 16.233 5.19514 -1.57663 -4.13943 3.15718
2042 3 1.65864 16.2376 6.88885 0.328289 -0.106007 -4.34324
2045 2 3.46669 14.3505 6.85183 -2.78336 -0.277435 -2.45858
2047 2 3.63885 16.271 8.71633 -1.3071 -0.699259 -2.0896
2044 1 1.62535 14.4635 8.55932 1.25188 -0.895321 -1.30881
2041 2 0.0297745 14.2365 7.01278 1.20767 -2.26636 2.45555
1148 3 5.20896 14.1801 5.11218 -0.386234 1.42404 -1.46774
1151 2 7.05954 16.2037 5.12255 0.0969233 -1.27573 1.55544
2046 1 5.26701 16.0017 6.85451 3.38935 -1.78257 -0.0847453
2049 2 7.09607 14.4161 6.94627 2.22972 2.52341 2.02619
2051 1 7.03424 16.2098 8.73134 -3.51268 -1.13064 -1.09677
2048 1 5.3124 14.4451 8.65769 1.33667 4.43422 -3.06774
1152 1 8.86848 14.3627 5.18319 0.393711 -3.48376 -0.745554
2052 3 8.84098 14.2677 8.71705 -0.535785 -0.967936 1.36764
2050 1 8.77942 16.197 6.93575 1.75479 -0.496468 1.62477
1155 1 10.5772 16.1375 5.12141 -2.28209 -2.56289 -0.00880713
1156 2 12.4635 14.317 5.22329 1.55267 0.778115 0.365771
2053 2 10.6416 14.4804 6.76202 3.26574 -1.90807 0.400006
2054 1 12.324 16.1732 7.01203 0.698392 -2.4881 -0.114048
2055 3 10.4584 16.0822 8.72784 -0.0296645 0.456632 0.561139
2056 1 12.4419 14.4425 8.59414 1.91518 4.21036 -1.36826
1159 2 14.1064 16.1379 5.13457 -1.27218 -0.571188 3.62118
1160 1 15.916 14.4263 5.21413 2.48103 0.79891 0.761313
2057 2 14.2201 14.2866 7.13969 -1.18772 0.109111 -1.33005
2058 1 16.0781 16.3166 7.06261 0.835253 0.613729 -0.402057
2059 2 14.2521 16.2811 8.60566 3.11224 1.08539 1.39032
2060 1 15.9868 14.3435 8.75287 1.06244 -0.442278 1.40132
2061 2 17.7421 14.352 7.13487 1.45228 0.228477 -4.58309
2063 1 17.6736 16.3472 8.8394 0.353774 -1.73741 -2.31082
1163 2 17.7149 16.2423 5.26578 0.663055 -0.149186 -0.279218
1164 2 19.5046 14.4103 5.30256 1.36408 2.30008 -0.966488
1167 1 21.3243 16.0804 5.25039 0.478618 2.42059 -1.67472
2062 3 19.5668 16.2727 7.10372 0.213016 -2.17219 2.24663
2065 1 21.2805 14.3624 6.97935 1.91378 -0.965882 -1.22184
2067 2 21.3567 16.0232 8.6876 -3.87707 1.04929 -3.27517
2064 1 19.5454 14.3939 8.77441 -2.99159 -4.22933 0.53921
1168 2 23.0141 14.2641 5.15469 -2.39851 0.747937 -1.14262
1171 1 24.8961 15.9751 5.22481 -0.533052 0.871226 -2.74548
2066 1 23.1259 16.1006 7.01402 1.77699 -0.363532 -1.64029
2069 2 24.8912 14.1759 6.91302 -2.44838 5.5213 -1.53353
2071 2 24.8111 15.8877 8.68383 1.36417 1.08453 -2.7389
2068 1 23.0526 14.2732 8.71534 1.25482 -1.51477 -0.356544
1172 2 26.5597 14.3646 5.15959 -2.43249 3.48097 -0.669592
2070 1 26.6813 16.1021 7.00335 -2.16288 3.60223 0.123183
2132 2 26.7014 17.7108 8.68544 -3.1414 -2.17258 -0.526437
2129 3 24.9067 17.8066 6.97645 -0.739672 -0.316771 3.56027
1228 2 23.1598 17.8215 5.24437 -4.90464 -1.81325 -1.45123
2105 1 3.59266 17.9582 6.81342 1.40484 -2.57874 2.29304
1204 2 1.72235 17.858 5.00678 1.83698 0.0150231 -0.720328
1207 2 3.4096 19.795 5.07185 2.35959 1.46394 -2.17275
1264 2 1.75603 21.4946 5.05015 -6.67844 0.824968 0.245049
2102 3 1.7172 19.7616 6.85103 -0.618021 1.02127 0.838579
2165 1 3.52131 21.5385 6.75212 3.02025 -0.513025 5.70139
2107 2 3.45737 19.7755 8.62584 -0.964658 -1.109 -3.67751
2164 1 1.80357 21.6876 8.54511 1.63766 1.81901 -3.76031
2104 2 1.76685 17.8878 8.6311 -1.92464 0.783529 -4.51038
2161 2 -0.0148771 21.3413 6.75753 0.206844 -0.415829 -0.143687
2103 1 0.0271325 19.6651 8.58684 -0.145636 -2.59144 0.885342
1208 1 5.39909 18.2055 5.26708 2.29994 -1.09812 3.25413
2109 2 6.88404 17.9837 6.88206 0.703721 2.02715 -2.44294
2108 2 5.31723 18.0145 8.74993 -0.0126326 -2.51466 -2.27561
1211 1 7.17893 19.8681 5.23679 0.698069 -1.62994 3.41439
1268 3 5.23027 21.5156 5.06297 -0.301151 -1.84595 0.42334
2106 1 5.20616 19.8006 6.91599 -1.00118 6.06824 1.46574
2169 2 6.99003 21.4903 6.90574 1.38245 1.94788 -2.22279
2168 2 5.24061 21.4662 8.7465 -2.72679 5.01745 1.19372
2111 2 7.12604 19.7879 8.69085 -3.69132 -1.20453 2.55573
2172 1 8.82844 21.4916 8.78894 -2.63985 0.800882 -3.16569
1212 1 8.77984 17.9691 5.25049 -0.344834 -2.90869 -3.00987
2110 1 8.8613 19.9442 6.97347 -4.35179 -0.213137 1.23465
2112 2 8.91418 18.023 8.51815 -1.23765 1.59271 3.70932
1272 3 8.91329 21.639 5.03601 -0.994191 -2.23735 1.64997
2116 2 12.3295 17.8685 8.80407 -1.37164 1.35979 2.50192
1216 2 12.2688 17.9529 5.06724 -0.811713 1.09123 0.0897273
2113 2 10.6377 17.9443 6.91407 2.48145 1.29114 3.54164
1215 2 10.5688 19.6675 5.14562 1.12263 -0.716596 -1.10412
1276 1 12.4021 21.5345 5.1698 1.13055 -0.0596358 -2.82986
2114 1 12.3375 19.6404 6.95316 1.08555 1.98215 -0.272599
2173 2 10.7212 21.4946 7.00166 2.37553 1.73819 1.81088
2176 2 12.4946 21.5652 8.71901 1.4622 -2.11312 -2.29713
2115 1 10.6225 19.7878 8.66115 0.0983025 -4.23266 -2.83237
2121 2 17.5843 18.2011 6.88126 -0.760662 7.92742 -3.01663
2120 1 15.7702 18.0376 8.66758 1.93397 -0.0334302 -0.257999
2117 1 14.2568 17.9512 6.79804 1.40182 -0.270297 -0.317127
1220 1 15.9839 17.967 5.07718 -4.73553 -1.10736 2.33883
1219 2 14.0977 19.8062 5.20768 2.90297 -0.660939 -2.71174
1280 1 15.8795 21.4632 5.08007 -2.02268 0.814007 -2.50077
2118 2 15.9052 19.7756 7.0434 0.775396 -1.69913 -1.12514
2177 1 14.1572 21.4892 7.00763 -2.27201 -1.90607 1.45869
2119 2 14.0841 19.6479 8.74001 0.307296 -1.01078 -1.52048
2180 1 15.7605 21.5813 8.76196 0.662068 0.479967 -0.967193
2123 3 17.7484 19.6923 8.74257 -1.44563 -1.40577 -1.28032
2181 2 17.6421 21.5592 6.94576 2.93583 1.67243 -1.6704
1223 1 17.64 19.8082 5.12023 0.3218 -1.58261 -0.781034
1224 2 19.5825 17.8608 5.16897 4.49289 3.65651 -0.796372
2124 3 19.5979 17.9063 8.85341 3.06168 5.55135 1.01902
2125 3 21.4498 17.9293 6.98533 0.485003 -1.6633 -2.42145
1227 3 21.2936 19.7525 5.11477 1.06145 -0.0220666 2.95001
1284 3 19.5279 21.5302 5.14892 0.0451741 -3.49714 -2.4955
2122 3 19.3786 19.6965 6.95795 -0.67809 2.31161 -0.97658
2185 3 21.3384 21.4503 7.03825 -2.76938 -1.22393 -0.246967
2127 3 21.2988 19.7382 8.67707 0.0880524 -1.09513 1.52017
2184 3 19.535 21.5089 8.66887 -0.354984 -0.578028 -2.53098
1292 3 26.5416 21.4306 5.24436 0.781752 -1.82769 2.52894
2128 3 23.1531 17.9711 8.74744 0.0388672 0.0528177 1.52365
1231 3 24.8942 19.7126 5.10184 3.89993 -2.9715 0.236983
1288 3 23.1249 21.6506 5.22884 1.95011 -2.33319 2.11067
2126 3 23.055 19.7362 6.94822 -1.63599 2.92352 0.518125
2189 3 24.8553 21.5525 7.02184 -1.97195 -0.723173 2.13252
2131 3 24.9439 19.6855 8.73139 2.06014 0.0779216 -2.52933
2192 3 26.7131 21.5616 8.70214 -0.582589 2.67847 -3.92495
2130 3 26.617 19.6195 6.93657 -3.01293 -2.70806 0.140057
2188 3 23.1043 21.5147 8.77075 1.44871 -1.69931 -1.16826
1232 2 26.5415 17.8919 5.17455 4.2632 0.705184 -3.48431
1263 1 -0.0227315 23.1995 5.04453 -3.20393 2.55369 -1.27255
1267 2 3.51717 23.2701 4.94119 -4.67093 2.4427 -3.09195
1324 2 1.60435 24.8949 5.09447 -1.01329 -0.66183 -2.99965