ITEM: TIMESTEP
99600
ITEM: NUMBER OF ATOMS
13500
ITEM: BOX BOUNDS pp pp pp
-2.2194204221399616e-02 5.3542194204211370e+01
-2.2194204221399616e-02 5.3542194204211370e+01
-2.2194204221399616e-02 5.3542194204211370e+01
ITEM: ATOMS id type x y z vx vy vz
7 1 3.45869 2.05062 1.72934 3.23489 2.67608 2.9527
64 2 1.91832 3.71036 1.68073 0.19796 -5.26223 -0.800717
902 2 1.7079 1.88184 3.56907 -0.900014 1.7795 -0.572416
965 1 3.58503 3.79567 3.57119 -3.79567 -1.33317 -0.157864
905 1 3.50865 0.228933 3.54166 4.63728 3.55251 4.22871
4 3 1.67249 0.1478 1.66428 1.62121 2.9201 0.486107
5 2 3.50148 0.14822 0.0327056 -2.65606 0.262008 -0.482624
11 2 7.08071 1.8648 1.73751 2.66624 -0.708867 -2.37917
68 2 5.16507 3.67752 1.68582 -1.65611 -1.33513 -0.596736
906 2 5.30031 2.01671 3.45384 -2.36989 1.61599 4.09346
969 1 7.06028 3.62152 3.5359 0.22339 -1.38439 -2.02968
909 3 7.11394 0.0170124 3.44948 0.494994 3.10911 -1.70856
8 1 5.21079 0.200553 1.80771 0.787621 -3.26898 2.02039
910 1 8.9067 1.87622 3.42852 2.86527 3.37332 3.30243
72 2 8.97413 3.7051 1.70566 -2.45739 -0.543638 0.242923
15 2 10.7916 1.75831 1.67648 -1.30123 0.595326 -1.68026
76 1 12.6492 3.54074 1.56792 1.21802 0.321921 3.8607
914 3 12.5658 1.87147 3.36302 1.05735 1.39083 -0.387703
973 1 10.7465 3.57103 3.48526 -1.54253 3.81328 0.0132943
913 1 10.7907 0.192916 3.49735 -1.16538 1.56889 -0.4775
16 1 12.5989 0.030022 1.69679 3.55504 -0.949365 -0.0457565
19 2 14.3255 1.75474 1.56322 -1.59512 1.54354 3.93865
80 3 16.135 3.75513 1.53847 0.576306 0.584916 2.8062
918 3 16.0769 1.85462 3.41533 -0.0392594 0.942805 -0.942046
977 3 14.3215 3.5593 3.42367 1.2307 -0.0493638 -3.02492
20 3 16.0426 0.0854614 1.70559 3.5485 1.01338 -1.31152
23 3 17.7519 1.8799 1.62097 -1.84145 -3.98725 -1.29248
981 3 17.9757 3.6371 3.39381 3.66559 3.03979 -0.454921
27 3 21.3082 1.70781 1.701 -0.819234 -0.794185 2.45232
84 3 19.7454 3.51799 1.62524 -1.01789 1.65768 -2.17812
922 3 19.6082 1.84224 3.53415 -2.59186 0.719126 2.50928
985 3 21.4127 3.55574 3.55663 0.81573 1.59482 0.994206
24 3 19.6001 0.0456858 1.67172 -0.981898 -2.02519 1.8686
925 3 21.403 0.0142317 3.54888 -0.0481025 -4.18579 0.186283
921 3 17.8575 0.0230052 3.51378 0.523434 0.870566 2.61628
31 3 24.8984 1.83051 1.59872 0.423431 -0.804122 0.809992
88 3 23.1319 3.61687 1.77871 0.387546 3.27882 -0.473805
926 3 23.1377 1.75164 3.48973 -2.32541 -0.641931 -5.36732
989 3 24.9114 3.62532 3.39258 -1.52218 -8.27704 -2.15625
929 2 24.9217 0.154671 3.32734 -1.42774 0.91674 1.69774
32 1 26.7413 0.111294 1.64657 0.749039 -2.88102 -3.53943
67 1 3.49757 5.54081 1.48026 -0.760186 -0.0532314 -0.919859
124 3 1.84259 7.14777 1.61384 -1.88872 1.75256 3.14819
962 3 1.59305 5.47976 3.46337 0.528989 -0.684434 -0.813129
1025 3 3.49713 6.96722 3.45708 -0.18212 -3.46625 -0.42097
1022 3 1.89696 8.8642 3.5194 -0.287403 0.534719 0.883997
123 3 0.0181225 8.81537 1.627 -0.254329 -5.10168 1.58158
127 3 3.55207 8.87486 1.73817 -0.660766 -2.9617 5.32044
71 1 7.1276 5.2544 1.75371 1.72287 -3.06703 1.07749
128 3 5.39028 7.16805 1.66042 -0.257622 -0.444948 2.62954
966 2 5.31512 5.30009 3.4553 1.50228 -0.893152 -0.541185
1029 3 7.06533 7.10743 3.5799 0.921393 3.15712 -1.32057
132 2 8.84097 6.99025 1.62388 0.165363 -0.707565 2.79892
1026 3 5.28524 8.79221 3.5016 -3.32618 -2.20224 1.76596
131 2 7.21119 8.8592 1.59628 1.3216 -1.6243 -2.95735
970 2 8.88103 5.29719 3.53809 0.47878 -0.855771 0.755769
1030 1 8.91629 8.86381 3.51094 2.91563 0.88161 -0.392078
75 1 10.7486 5.35063 1.65391 -6.79094 2.02331 -0.381928
136 1 12.4219 7.21241 1.7009 -2.30589 2.92305 -0.7702
974 2 12.4222 5.27575 3.42679 -3.41446 -2.18613 -1.2336
1033 1 10.6703 7.05585 3.48936 3.69721 1.21362 -4.4954
1034 2 12.4287 8.82429 3.37002 0.106723 -1.1951 -4.41775
74 2 12.583 5.37658 -0.0107247 -0.0238718 0.0518648 -0.673452
135 2 10.6146 8.78112 1.61494 0.767054 -3.79055 2.67463
79 3 14.3201 5.41141 1.6288 0.243235 -1.60471 1.60803
140 3 16.0876 7.12718 1.67771 -1.07707 0.985326 2.35882
978 3 16.1564 5.34297 3.4634 -1.17279 4.30932 -1.45024
1037 3 14.2991 7.05938 3.42128 3.01474 -3.05878 -0.586799
83 3 17.8469 5.36662 1.62598 2.63638 -0.98205 -0.163152
1041 3 17.8302 7.09377 3.44913 -2.47533 1.23385 1.61792
87 3 21.5252 5.33905 1.57914 -0.233028 2.19134 4.52496
144 3 19.7163 7.12723 1.65939 -2.08561 0.207789 -3.8248
982 3 19.7462 5.40024 3.471 0.0672096 -0.683756 -0.593239
1045 3 21.3736 7.06839 3.43721 -2.76366 3.50872 2.90008
91 2 24.9272 5.1512 1.56637 0.933052 4.73246 -1.10802
148 1 23.2011 7.20842 1.66828 1.82879 1.23229 2.02332
986 3 23.1607 5.36432 3.51949 0.815424 0.622749 1.09483
1049 3 25.0358 7.15599 3.42117 -3.10992 -0.617067 -2.23261
184 3 1.75229 10.6251 1.76726 0.0579157 1.67389 -0.391469
187 2 3.47268 12.4632 1.60589 -1.56052 -2.58357 -0.0142331
1082 1 1.71746 12.4275 3.38944 -3.69121 -1.50142 -2.04766
1085 3 3.5812 10.7621 3.52006 0.749975 3.10389 3.24262
1081 2 0.0340078 10.6506 3.534 -2.54999 1.62298 0.964421
188 3 5.31889 10.6188 1.62574 0.736611 -0.713484 1.81696
191 3 7.06621 12.4422 1.57615 -5.03151 -1.60481 1.66646
1086 3 5.376 12.5632 3.36636 0.346871 -3.48237 -1.79499
1089 3 7.1557 10.6871 3.41388 0.394909 -2.47636 0.203834
1090 3 8.88702 12.4528 3.37106 -1.3364 0.0770351 -0.0494982
192 3 8.94369 10.6033 1.68847 1.43762 -2.9788 -4.84525
195 1 10.6636 12.5745 1.61112 1.49945 -2.60427 -3.83071
196 1 12.4209 10.7646 1.45916 -2.278 1.51979 -2.60427
1093 2 10.7309 10.7243 3.32643 -0.134903 -0.794911 3.32375
1094 1 12.3771 12.4337 3.41721 -1.46227 0.524825 1.19281
139 2 14.2267 9.02236 1.65161 -4.13011 2.71754 0.346008
1038 1 15.9915 9.01631 3.36915 -0.308187 -1.83687 3.34183
199 2 14.1436 12.4019 1.56032 1.47515 1.67229 -2.43835
200 1 15.8869 10.8855 1.61817 -0.122954 0.402773 0.65756
1097 2 14.0435 10.6602 3.48036 -0.38845 -3.12174 -0.0239838
1098 2 15.9269 12.4608 3.35427 0.926253 -3.42824 -2.03147
203 2 17.7355 12.5194 1.69758 0.654867 0.484114 -3.32276
143 2 17.812 8.98188 1.68084 0.102512 -2.65634 0.651675
138 2 16.0407 8.96022 0.0251987 -2.62672 -3.74745 1.24436
1042 1 19.7436 9.01618 3.43676 -4.45108 0.434003 1.46623
147 2 21.3998 8.96449 1.63808 -2.31271 -1.37136 -2.10607
1101 2 17.8312 10.6221 3.40504 -10.5676 -3.23368 1.49663
204 1 19.5165 10.8467 1.70106 -4.79448 -2.70233 1.59627
207 2 21.3801 12.4867 1.58637 -3.13755 1.48303 0.259233
1102 1 19.5274 12.4467 3.62005 -5.47317 -2.10179 -1.54571
1105 2 21.4292 10.8365 3.49184 -5.10013 -2.00471 1.65765
201 2 17.8762 10.858 0.0285758 -0.209791 -3.27484 -0.493456
1046 2 23.1901 8.93876 3.38015 1.83331 0.128445 -0.317139
151 2 25.0961 8.93266 1.63945 -1.86515 1.98505 0.920962
208 1 23.3595 10.7152 1.61065 1.7134 -3.06374 -5.93822
211 2 25.108 12.5951 1.64463 4.49906 -2.86163 2.05152
1106 1 23.1811 12.5193 3.46573 -2.6942 -0.751894 -2.36962
1109 1 25.124 10.8859 3.39515 4.37747 -0.030073 0.333011
244 2 1.68511 14.1707 1.74547 -2.56032 0.0894812 -1.67786
247 1 3.56444 15.9493 1.72764 0.729928 -2.56921 -3.46991
1142 1 1.75228 16.0173 3.57985 -0.78492 2.10386 -0.792572
1145 2 3.47818 14.1999 3.50258 -2.14085 -1.03684 3.38555
1141 2 0.0666469 14.2271 3.51962 -0.87215 -0.130014 -0.720045
243 1 0.0832579 16.1269 1.91486 -0.46486 3.44872 1.26302
301 2 0.0610783 17.7696 -0.00635545 -1.3462 -4.80394 -0.553962
245 1 3.31166 14.1765 -0.00774025 2.66612 -3.37796 2.17359
248 3 5.31328 14.4141 1.76618 1.55216 1.07342 1.37405
251 3 7.16125 16.1288 1.63085 -1.54869 2.31326 1.40207
1146 3 5.37969 16.1316 3.45359 0.298824 -5.6548 -2.86702
1149 3 7.11246 14.4163 3.39287 0.987792 2.36585 -1.12221
312 3 8.8902 17.7771 1.57055 2.60132 2.16288 -0.290306
252 3 8.856 14.322 1.62812 -0.926203 -0.731431 1.42364
1150 3 8.89349 16.1416 3.45531 -3.71381 0.790187 1.99945
255 3 10.6802 16.0919 1.63035 3.08986 -2.16159 0.674162
256 2 12.4993 14.2675 1.70221 3.06225 -1.59566 2.29824
1153 2 10.7313 14.3669 3.39096 -0.875755 0.857148 1.81907
1154 1 12.4454 15.9617 3.42166 -0.833507 0.806419 -1.20858
316 2 12.4487 17.7895 1.53437 0.444158 -2.38948 2.35365
259 2 14.0351 16.0386 1.46496 2.10453 4.7927 5.38318
260 1 15.7998 14.4191 1.5603 4.04997 -1.5163 2.01491
1157 1 14.1208 14.2421 3.36925 2.24763 0.83867 -1.22967
1158 2 15.941 15.97 3.28363 -0.021322 2.43037 2.24098
1161 2 17.7322 14.2251 3.51555 1.74375 -0.927128 3.41551
1217 1 14.1496 17.8363 3.38216 -5.42942 1.9522 -2.08781
263 1 17.734 15.993 1.53563 0.934865 0.0433177 -1.00979
1221 1 17.8101 17.7878 3.3913 -4.37502 -1.3881 -1.9792
264 1 19.5205 14.3589 1.67617 -0.366276 3.94028 1.7984
267 3 21.4093 15.9612 1.51544 -1.02535 1.41707 1.76935
1162 2 19.6144 16.0173 3.31257 -0.0942225 2.25428 -2.27788
1165 2 21.3018 14.374 3.46771 0.851923 -1.92947 1.06075
1225 1 21.4188 17.7252 3.39908 -0.93524 0.569251 -2.72356
324 2 19.6573 17.7523 1.70902 1.71358 0.0527729 -1.78547
268 1 23.289 14.2714 1.71553 1.94786 1.00596 -0.192235
271 3 24.9926 16.1372 1.6559 0.207604 -0.315089 -0.217806
1166 2 23.1713 16.0272 3.49769 1.37845 -0.281602 1.70188
1169 2 24.9836 14.2159 3.51933 -3.05688 -0.404285 3.31733
328 3 23.2244 17.7313 1.71583 1.45164 0.201073 2.11184
272 1 26.6698 14.3045 1.76281 -2.96204 2.15335 1.89978
305 2 3.28943 17.974 0.0610907 4.28464 -1.27193 -1.79418
1205 3 3.61017 17.8712 3.60396 0.488271 -0.669253 -0.861603
304 2 1.86059 18.0451 1.95111 2.04991 -3.2373 1.5148
307 1 3.51773 19.8245 1.67446 -1.98295 0.10909 2.76147
364 2 1.76239 21.4408 1.68505 -0.558905 2.69279 0.94162
1202 1 1.8445 19.6975 3.42282 -0.968763 5.62817 0.394369
1265 1 3.64308 21.4209 3.46176 6.16211 0.200404 -0.977609
303 1 0.025139 19.6869 1.748 0.343788 -2.01731 1.52629
1209 3 7.07974 17.8968 3.36854 1.18184 -0.151862 0.66695
308 3 5.18434 17.9743 1.60631 -2.64489 -2.27277 -0.363376
311 3 7.03621 19.6478 1.66606 2.54681 -0.195359 -1.44841
368 3 5.454 21.4936 1.63115 0.777619 -0.120363 1.30805
1206 2 5.23053 19.6861 3.41191 0.643629 1.72174 -0.212084
1269 3 7.14213 21.4016 3.42985 -1.51071 -2.08724 0.460681
1210 3 8.89945 19.6616 3.31371 -0.820991 -0.884657 -2.41173
372 3 8.95319 21.4528 1.59339 -3.68021 0.471734 -0.964376
1213 3 10.6395 17.8828 3.34188 1.98887 -2.66158 -4.6934
315 3 10.7567 19.6235 1.66011 1.25556 0.601213 -0.585323
376 2 12.5347 21.3691 1.67664 0.361584 0.992951 -3.74013
1214 1 12.4109 19.7375 3.49402 -0.233128 -2.38778 0.436792
1273 3 10.6703 21.4881 3.50375 -0.199104 -0.742604 0.440357
320 2 16.0135 17.8321 1.71792 -1.45813 -0.730192 0.722728
319 1 14.2247 19.4797 1.77542 2.34397 -0.953015 -2.28782
380 1 16.0066 21.4782 1.72374 1.39589 -0.260642 -0.284587
1218 2 15.9134 19.6246 3.48941 2.04039 3.22552 -0.524848
1277 2 14.2148 21.5992 3.45789 -3.4907 -0.676804 -4.71336
1281 2 17.7543 21.3677 3.58994 1.03493 -0.545571 -0.771926
318 2 16.1064 19.58 0.0273107 -0.523589 5.536 1.48012
323 1 17.8632 19.6572 1.75622 -0.0783464 -0.608934 1.02574
327 3 21.4756 19.6029 1.64978 2.8189 -3.91805 -1.79965
384 1 19.5877 21.4132 1.77451 -0.67882 -1.07773 0.0558467
1222 2 19.5534 19.5326 3.47848 0.113107 -3.47319 1.82469
1285 3 21.4412 21.4175 3.4317 4.576 0.307394 1.71031
385 3 21.4068 21.5549 0.0406781 2.30794 -2.32238 1.93611
1229 3 25.0033 17.8622 3.44633 0.42499 -1.34714 -0.0779861
331 3 24.9464 19.635 1.69931 -0.58449 -1.97951 0.0541774
388 3 23.2302 21.5525 1.66868 2.06082 3.86458 0.258028
1226 3 23.1218 19.4985 3.42957 1.80961 1.19251 1.30647
1289 3 24.9339 21.5383 3.39399 0.904515 -1.33829 -0.932717
1230 3 26.6925 19.6848 3.44133 2.47939 4.46524 -1.04674
392 1 26.7424 21.4614 1.63 0.769533 -2.6944 -1.64571
363 2 0.0168284 23.2215 1.72223 -1.95721 4.31986 -2.75945
367 2 3.77895 23.145 1.64013 3.1281 1.34531 -3.42871
424 2 1.85391 24.8483 1.77035 2.15744 -2.57379 2.00245
1262 1 1.8416 23.2358 3.45237 -1.13447 1.07773 1.53833
1325 1 3.57434 25.0085 3.65102 5.14156 2.81555 3.59856
1321 1 0.0446351 25.0682 3.35148 1.18127 2.37925 -2.51139
362 1 1.81994 23.1745 0.0300099 4.52642 0.212346 1.18591
423 3 0.082541 26.7511 1.57105 -3.43774 -1.70471 0.847115
371 3 7.10228 23.2512 1.64677 -1.79226 1.64584 -0.514129
428 3 5.36341 25.0276 1.78227 2.21811 -4.17225 -0.669485
1266 2 5.37326 23.1349 3.55392 3.09384 -1.93448 -3.85886
1329 3 6.93742 25.0002 3.60566 -2.16083 -0.63187 1.53978
432 3 8.76693 25.0256 1.74995 -0.262337 0.848539 1.05707
1270 3 8.95733 23.224 3.68368 -3.68207 -1.8461 1.56651
375 3 10.6859 23.1912 1.78149 3.41066 5.3577 2.54703
436 2 12.3501 25.1281 1.65488 -1.38827 2.2639 -0.110809
1274 1 12.4026 23.2248 3.46644 -1.69915 -0.29918 2.40184
1333 3 10.6117 25.0704 3.4829 3.09745 0.00121648 -3.66593
1334 2 12.5287 26.7446 3.38566 -2.9295 0.666882 1.35084
379 2 14.1682 23.199 1.77911 0.486478 1.93949 -0.819756
440 3 16.0966 24.9725 1.70665 1.33363 1.69734 -0.394696
1278 1 16.1021 23.3201 3.50222 1.69115 1.9683 3.99671
1337 1 14.2639 25.0072 3.31656 -0.555377 -1.15872 -0.499535
383 2 17.7884 23.0181 1.68768 -1.9009 -0.662372 -0.776881
1341 3 17.8634 24.974 3.40893 -1.15031 -0.0907935 1.43504
387 2 21.4331 23.1518 1.66152 4.61473 0.645154 -0.416813
444 3 19.568 24.9317 1.67635 1.77452 0.0213481 0.532872
1282 3 19.6091 23.2581 3.5452 -0.682336 -1.55792 0.51851
1345 3 21.392 24.8845 3.41172 3.51197 2.39456 -1.83044
443 3 17.9705 26.7566 1.68932 -1.25906 2.76015 -1.75875
391 2 25.0692 23.3128 1.65305 1.84772 3.06082 1.3817
448 2 23.1717 24.9741 1.7286 5.87534 -0.509799 -0.577801
1286 3 23.2319 23.2169 3.54165 -1.315 -3.43488 -0.973332
1349 1 24.8546 25.1835 3.62376 1.47762 4.41876 -1.72489
1290 3 26.7572 23.2227 3.50368 0.166401 -5.86837 -1.67293
452 2 26.6272 25.0961 1.75396 -2.61116 -2.15929 -0.507065
1350 1 26.6741 26.568 3.679 2.62638 0.170203 2.55146
449 1 24.9392 25.0416 0.0628757 -4.28498 -5.16283 0.456306
904 1 1.7012 0.057444 5.25621 0.568348 0.204613 1.64717
907 2 3.57082 1.93312 5.33462 4.85209 -0.337693 0.529642
964 2 1.68741 3.75755 5.31239 3.48444 -1.80562 -3.7867
1802 1 1.60884 1.81331 6.99122 -1.98636 3.42044 1.74526
1865 3 3.54856 3.61517 7.01197 1.70832 -2.7904 -0.611616
1805 2 3.55413 0.228681 6.97344 -0.105415 -1.20195 -0.990977
1807 3 3.54214 1.93161 8.87512 -1.00925 -4.1679 0.860557
1801 2 0.0471592 0.0348375 6.98252 -2.69709 -2.04732 1.43972
1809 2 7.16244 0.122821 7.0083 0.638166 0.705537 4.22443
911 2 7.28551 1.92298 5.38931 0.255435 -3.63001 0.816576
968 2 5.3143 3.8301 5.28578 -0.873736 -0.843049 2.27968
1806 1 5.35764 1.93547 6.99382 1.06405 -2.77032 -0.812706
1869 1 7.06556 3.61964 7.25345 -1.1185 -0.118653 0.171223
908 1 5.34511 0.230569 5.09008 0.867155 1.15418 -1.41127
1808 1 5.34631 0.0863187 8.71016 -1.73792 -0.0362921 -0.256254
1810 1 8.77163 1.82479 7.1376 2.46434 -4.57581 0.372954
1811 2 7.04204 1.81102 8.8537 -0.804994 2.71537 -3.22399
912 1 8.93313 0.0795922 5.2182 1.8354 -0.494534 -0.194423
972 2 9.11611 3.57225 5.42306 1.86919 2.36832 0.24629
915 1 10.7556 1.78643 5.32039 2.52527 2.59865 -2.47085
976 2 12.507 3.65244 5.32003 -0.828096 -2.49677 -2.29166
1814 1 12.6942 1.81563 7.16343 1.32506 2.06606 1.37797
1873 2 10.7266 3.50266 7.22602 -5.89456 5.09978 -1.1802
916 2 12.6735 0.128253 5.31402 -1.30658 -0.570457 2.99405
1813 2 10.8648 0.0748488 7.01836 2.25847 -1.19467 2.86462
1872 1 8.96153 3.56932 8.75141 -0.288431 2.64251 0.324757
1816 2 12.4324 0.0773893 8.85659 -3.17515 -0.160659 -4.98725
1812 1 8.93478 -0.00575247 8.79688 -5.16879 4.03273 -0.0827875
919 3 14.407 1.87793 5.19248 -2.9015 -1.84195 -2.31574
980 3 16.1724 3.62868 5.36918 -2.39552 0.264639 -3.6243
1818 3 16.0782 1.785 7.0622 1.05207 -0.149741 0.0347536
1877 3 14.3484 3.58683 7.10381 2.31308 -0.512004 -3.01178
1880 1 16.0253 3.68374 8.77798 -3.37158 1.54337 2.76578
920 3 16.0731 0.102064 5.30314 3.60607 -3.17679 4.91618
1820 3 16.0607 0.0172541 8.80594 -2.17145 0.379057 -0.33643
1881 2 17.8351 3.69244 7.0647 2.63737 -0.449098 8.17648
1817 3 14.2098 0.0762847 7.13945 3.18582 1.81381 0.747695
1821 3 17.7796 0.0592571 7.13246 -0.777861 2.04343 3.3772
923 3 17.9193 1.8215 5.31237 -0.0197812 0.426404 -3.27456
927 3 21.2936 1.83347 5.27289 -0.496014 -3.4582 -0.938235
984 3 19.6276 3.59563 5.17476 -3.09891 0.156758 -2.31746
1822 3 19.5595 1.9097 7.05212 2.47262 2.6611 -4.87593
1885 3 21.2809 3.5412 7.051 -2.47689 -1.92173 -0.607805
1825 3 21.3936 0.167316 7.13579 0.346855 2.7833 2.81356
1884 3 19.7183 3.6218 8.86892 -0.195259 1.50709 -1.03477
1827 3 21.3419 1.87811 8.84244 -2.35603 -1.20088 0.286332
1824 3 19.5588 0.155423 8.85548 -0.947151 -2.58609 0.641649
928 3 23.2161 0.142064 5.4229 -1.46279 -4.66794 1.72482
931 3 24.9787 1.87694 5.14664 -3.21997 2.76037 1.2367
988 3 23.2851 3.54861 5.23381 -1.09509 -1.73906 -1.27826
1826 3 23.2216 1.83938 7.05658 1.50638 -1.88287 -0.390629
1889 3 24.9335 3.62437 6.97369 -1.93784 1.53029 -0.11785
1829 2 24.9803 0.0482998 7.20635 -0.459154 -2.17474 2.24765
1888 3 23.1057 3.663 8.80696 -4.66689 -3.75185 1.3958
967 1 3.46265 5.38363 5.28823 1.03827 1.77965 1.18436
1024 2 1.80914 7.02507 5.2885 -1.72541 -4.30418 6.31267
1862 3 1.65055 5.3934 7.12072 0.960132 -1.25247 -2.14536
1925 3 3.43511 7.09116 7.01849 0.69751 -3.96181 1.43544
1924 3 1.8031 7.14139 8.86941 1.69056 0.284842 4.09277
1027 3 3.57317 8.8313 5.26557 0.5309 2.43827 2.84944
1867 3 3.5584 5.41317 8.88575 -1.14976 -2.08721 -1.23004
971 3 7.1318 5.32904 5.30966 3.4778 2.5296 0.691549
1028 3 5.3854 7.00319 5.28024 1.26295 -0.208802 3.22085
1866 3 5.3226 5.38617 7.17192 2.20304 0.70537 0.145455
1929 3 7.03569 7.11594 7.10776 0.171463 -0.834419 1.10599
1871 2 7.13831 5.31905 8.84085 1.73103 3.21127 2.07931
1926 3 5.38342 8.78821 7.07393 -1.0217 2.39895 1.07371
1932 1 8.85668 7.12937 8.87313 -2.73867 0.878231 2.40359
1870 1 8.88441 5.38031 7.09248 -0.810288 1.46728 5.08776
1031 3 7.14632 8.88377 5.20746 4.14581 -1.153 2.14148
1930 3 8.79343 8.89556 7.08384 -0.421367 -0.375694 -2.37028
1032 2 8.95233 7.07761 5.36793 0.587237 -2.45166 -0.93223
975 1 10.7175 5.34066 5.41137 0.707029 3.56164 2.74937
1036 2 12.4994 7.11265 5.35838 -1.69562 1.59607 -2.06983
1874 1 12.5653 5.35439 6.9655 -2.56384 -2.82311 -1.58348
1933 2 10.7379 7.21028 7.12109 1.22912 0.26753 -0.189837
1936 1 12.5079 7.08562 8.71917 0.941571 3.31842 -0.40064
1035 1 10.7374 8.8904 5.18306 -1.62654 1.19723 1.88681
1875 2 10.7509 5.33759 8.87333 -3.77836 -1.89139 5.16657
979 3 14.3381 5.24756 5.29939 -1.98375 1.77744 1.85757
1040 3 16.0478 7.10711 5.22227 -1.06026 2.51089 -3.07575
1878 1 16.032 5.36321 6.95397 -0.204011 0.63516 1.17258
1937 2 14.2018 7.22566 6.85996 -2.93064 -4.91664 1.93191
1879 2 14.159 5.52079 8.76394 -2.25512 5.18272 2.14704
1940 1 15.9008 7.16644 8.71436 0.376916 -0.0175962 3.10984
1043 2 17.8015 8.88216 5.12821 0.735113 2.88425 6.89496
1039 1 14.1938 8.90258 5.152 1.45411 1.15569 -1.04069
1883 2 17.8193 5.43702 8.84418 -3.29165 2.02097 0.506412
1941 1 17.8125 7.19234 6.95917 -5.35648 0.879465 0.690556
983 3 17.9739 5.27481 5.26135 -0.492481 -0.830467 -1.80729
987 3 21.381 5.39039 5.36884 1.35647 -1.37999 -0.723993
1044 2 19.6992 7.13887 5.37002 -1.13799 -5.28018 0.646245
1882 3 19.6539 5.50703 7.1376 0.494104 1.77946 0.78599
1945 2 21.4841 7.21624 7.06855 -0.567958 2.14435 2.83622
1887 2 21.3998 5.49479 8.88793 1.47056 1.90839 -1.20699
1944 1 19.5666 7.25784 8.8296 1.42724 -0.512373 -0.787363
1047 1 21.4461 8.86182 5.27567 2.18614 -0.306069 1.27345
991 3 24.9917 5.3779 5.13086 -0.655459 0.631083 2.61623
1048 3 23.2008 7.1082 5.26252 -0.270209 2.44039 -2.88953
1886 3 23.142 5.33537 7.03145 -2.22097 -3.24416 -5.65833
1949 2 24.9584 7.21335 7.03496 -4.64612 2.1151 -5.18678
1948 1 23.0385 7.25507 8.86514 -0.0358434 3.78036 2.47925
1891 3 24.8826 5.39123 8.75176 0.445774 -0.284609 -0.773557
1890 3 26.62 5.3539 6.88976 -2.7505 2.54068 -1.06201
1051 3 24.908 8.87841 5.20469 -1.25028 -1.56929 -1.21493
1952 3 26.7379 7.01214 8.7957 -1.97512 -3.10462 0.718215
1023 1 0.0511817 8.93325 5.28659 -3.77742 1.92526 1.13579
1922 3 1.72038 8.94342 7.07483 2.34689 -2.49819 1.79745
1084 2 1.80792 10.6831 5.31929 0.425336 -1.10997 -0.287163
1087 3 3.61531 12.5065 5.30048 3.23084 -1.71781 3.06087
1982 1 1.83896 12.3304 7.14119 1.14053 -2.60683 5.2709
1985 3 3.59901 10.7088 7.10998 -1.28807 0.388777 -0.714136
1987 2 3.53586 12.5572 8.82135 -3.54107 0.828127 -0.84008
1083 3 0.0911219 12.5194 5.31955 1.33654 2.841 0.228716
1927 3 3.62303 8.96755 8.86209 2.08685 1.57435 -3.26663
1088 3 5.30234 10.6308 5.28994 1.72968 2.63394 -0.559144
1091 3 7.03728 12.4053 5.21839 2.32316 -2.34221 -0.485307
1986 3 5.41141 12.4805 7.04223 0.631837 -2.8252 0.796137
1989 3 7.17682 10.7292 7.05273 2.02811 2.14437 -0.581879
1991 2 7.00921 12.6498 8.82718 1.56805 3.01792 2.6599
1990 3 8.78037 12.4714 6.99159 0.903096 -1.69894 0.98486
1092 2 8.78514 10.5945 5.16074 0.293043 -0.745166 0.940383
1988 3 5.37807 10.681 8.83943 1.06824 0.438828 -3.31453
1934 1 12.3478 9.02023 6.94404 -2.83527 -0.785977 -2.37641
1095 3 10.6264 12.5532 5.17203 0.820342 -0.60986 -2.29238
1096 2 12.1918 10.6045 5.14552 1.65149 -2.98353 -1.2894
1993 1 10.4732 10.7396 7.11654 -2.39766 2.25228 1.59822
1994 1 12.3474 12.2572 6.85229 2.78168 0.612623 1.94335
1996 2 12.4925 10.6709 8.79562 -0.824329 -4.47135 -0.208447
1935 2 10.7145 9.00369 8.81315 4.60482 1.48323 -2.53257
1995 2 10.8402 12.507 8.88149 -0.256995 1.27062 -4.18757
1939 1 14.3447 8.97936 8.67379 -1.00562 1.35107 -4.31576
1938 2 16.1395 9.08663 6.81921 -0.29001 -1.33424 1.4281
1099 1 14.1026 12.4669 5.26977 3.06316 0.560771 4.24924
1100 1 16.0009 10.6557 5.10768 2.57787 1.97641 3.27637
1997 2 14.1798 10.7485 6.98808 -3.07914 -0.639263 -0.357016
1998 2 16.0754 12.4822 6.7936 0.314151 2.42966 2.46849
2000 1 16.0464 10.7249 8.829 -0.896818 -4.00767 -0.988639
1103 1 17.78 12.4537 5.24615 3.74776 1.72749 2.69174
1999 2 14.1233 12.5543 8.78419 0.308505 -1.3571 -0.827454
2003 1 17.6543 12.4977 8.84907 2.27359 1.88454 -0.847707
2001 1 17.7473 10.7234 7.01525 -3.4886 2.61934 3.98663
1943 2 17.8719 9.05044 8.84819 -0.368669 -0.377241 1.53808
1947 2 21.2947 8.99888 8.84828 2.69456 -1.73727 -1.66523
1942 1 19.4619 9.10248 7.01038 -1.63023 -0.174801 -1.07936
1104 2 19.6356 10.7015 5.22776 1.68292 -1.28313 3.74575
1107 1 21.4862 12.5029 5.39011 1.64603 0.215796 -0.916211
2002 2 19.4326 12.4721 7.06806 0.892265 0.907481 1.57836
2005 1 21.3576 10.6452 7.04214 -1.11469 -0.704288 3.41076
2004 2 19.5719 10.8178 8.8318 -2.46443 -0.108931 1.48681
2007 2 21.4648 12.5915 8.67051 -0.327335 1.18529 -2.44081
1946 1 23.2546 8.92625 7.0902 -1.0608 1.39613 3.26748
1108 2 23.2803 10.8499 5.17355 3.93878 -1.80834 1.01178
1111 1 24.995 12.5545 5.07737 -2.00477 0.8097 -0.435482
2006 2 23.3672 12.4899 7.03017 2.31774 -0.421657 0.916441
2009 2 24.9315 10.6743 6.96823 2.60451 0.963667 3.68873
2008 1 23.2202 10.5588 8.76802 -1.27703 -3.8555 -1.1597
1112 2 26.7567 10.8109 5.25303 0.816528 0.27405 1.5277
1144 1 1.76213 14.2407 5.22269 -3.67013 -2.32624 0.479143
1147 2 3.46717 16.0995 5.27964 4.89893 0.779705 2.55917
2042 3 1.66444 16.0987 7.0431 0.86113 5.6191 2.26329
2045 2 3.37593 14.2376 6.96526 -2.38511 -3.51544 6.61822
2044 1 1.67403 14.3004 8.88133 0.725106 -1.77719 -1.04865
2047 2 3.50495 16.1172 8.77998 -1.71727 -5.1167 -0.183408
2041 2 0.00533286 14.2746 7.05972 3.57545 1.28326 -2.64607
1148 3 5.33571 14.2724 5.14028 -0.356249 -1.87772 1.77568
1151 2 7.18235 16.1044 5.23191 -1.96234 3.83448 1.69213
2046 1 5.18488 15.9665 6.89674 1.15627 0.435621 2.04636
2049 2 7.27449 14.336 6.91595 -1.58137 -0.357722 -1.73415
2048 1 5.2928 14.3867 8.88172 0.565287 1.02769 3.29
2050 1 8.8799 16.1276 7.03126 2.42096 0.6723 -2.72817
2052 1 8.72966 14.3218 8.71059 1.5825 1.56112 0.354002
2109 2 7.11123 17.7732 7.10064 0.259207 -1.97699 0.0684824
1208 1 5.27254 17.8036 5.30313 1.06744 0.0271588 2.50343
1152 3 8.93223 14.2322 5.15094 -3.1286 1.16308 -5.28101
1155 1 10.6941 16.0997 5.18665 -4.0387 -0.39011 -1.86675
1156 2 12.3988 14.3707 5.37844 -0.207756 1.03601 -2.6796
2053 2 10.4819 14.2409 7.04976 1.40982 1.23319 1.09762
2054 1 12.2701 16.1376 7.06442 2.11511 5.52603 -1.57496
2056 1 12.4137 14.1968 8.76918 3.53656 2.61907 -0.208864
2055 3 10.6112 16.2354 8.77487 2.05556 -4.92662 0.572221
1159 2 14.1681 15.979 5.3264 -3.31932 -1.55288 -2.38917
1160 1 15.8954 14.2513 5.2524 2.87462 -4.90993 -1.78932
2057 2 14.1981 14.3052 6.99123 4.07433 -1.66148 -0.668986
2058 1 16.0475 16.1298 7.01697 2.15062 0.276649 -0.625957
1163 1 17.7375 15.9753 5.16591 1.36032 -0.0334224 4.68012
2061 2 17.7625 14.3256 6.99357 -3.36575 -1.30552 0.719363
2060 1 15.8634 14.4537 8.79658 1.35163 0.00342714 -2.22486
2059 2 14.1415 16.0971 8.60128 0.315132 1.0569 -1.12052
1220 2 15.9945 17.7326 5.23623 -0.774023 0.0998251 -2.84745
2121 2 17.786 17.7397 7.02767 -0.77733 -4.11921 1.65303
1164 2 19.6111 14.3423 5.31414 1.18839 -1.93534 -0.461158
1167 1 21.3378 16.0913 5.17208 -0.136506 1.74309 0.443851
2062 1 19.5192 16.0131 7.06538 1.38969 0.845647 2.25368
2065 1 21.2818 14.3649 7.0775 0.301099 -2.3671 -5.69868
2067 2 21.3812 16.0704 8.75885 2.44367 0.128334 -0.876615
1224 2 19.6047 17.8199 5.27581 2.45613 2.58329 0.577197
2124 3 19.7536 17.7972 8.75207 -0.417626 -0.538496 3.22592
2064 1 19.578 14.1543 8.79908 -4.36146 4.03756 -0.161309
1168 2 23.2328 14.3413 5.25167 -1.78432 -2.12035 4.21976
1171 1 25.0538 16.0605 5.23992 -2.60904 -3.49073 1.14618
2066 1 23.2492 15.931 7.00716 0.829073 1.83203 0.0965757
2069 2 25.2174 14.3917 6.84281 -1.69673 0.387697 -2.4855
2068 1 23.1876 14.2987 8.74357 0.582405 -2.69895 -1.05821
2128 3 23.2281 17.7816 8.76232 -2.49994 0.695158 3.53005
2071 2 25.1294 16.094 8.76809 -2.08214 -0.326148 3.04541
2129 1 25.0728 17.6487 6.99904 -0.16121 1.46922 0.848482
1228 2 23.1483 17.714 5.29889 2.41748 -1.99855 -2.28964
2101 2 -0.0171864 17.9345 7.10772 0.986488 2.24128 3.29448
1203 1 -0.0107998 19.7653 5.17956 0.629547 -0.432681 1.52035
1204 2 1.69064 17.9214 5.1913 1.47236 2.90133 -1.84813
2105 1 3.43954 17.8687 6.99103 -0.135977 1.39426 -4.51867
2104 2 1.68235 17.879 8.84001 -0.479166 -2.56182 1.29694
1207 2 3.64404 19.6634 5.13525 2.28274 3.13505 -1.56183
1264 2 1.87818 21.467 5.27958 -0.276221 -3.32239 0.608693
2102 1 1.60993 19.6497 6.94852 -2.17654 -2.25804 -0.497236
2165 1 3.50947 21.4858 7.13277 -1.09367 -3.03109 2.61752
2164 1 1.61804 21.5018 8.7828 1.04519 0.615415 -1.43578
2107 2 3.40249 19.6479 8.7298 1.47727 -0.902154 -2.89053
2112 2 8.62977 17.9854 8.90401 -3.7398 -1.26035 0.451677
1211 3 7.07857 19.5896 5.28356 -1.84625 -1.02186 1.15272
1268 3 5.3582 21.4368 5.29593 5.03784 -1.78888 -2.02847
2106 1 5.35152 19.7045 7.14151 -1.56988 2.61197 0.787256
2169 2 7.12258 21.4282 7.06562 -4.90094 -1.98401 -0.703734
2168 2 5.39272 21.5206 8.74168 4.45539 -0.470665 -3.03031
2172 1 8.75831 21.4508 8.80635 -1.17864 1.06454 5.02029
2108 2 5.27233 17.8316 8.70243 -1.74906 -2.00653 -0.944784
2110 1 8.89521 19.5366 7.20258 0.036105 0.584036 -2.76885
1272 3 8.90014 21.395 5.29102 3.88673 -0.111396 -0.687138
2111 1 6.91997 19.6102 8.90345 0.975598 -2.27958 -0.804569
1212 3 9.01459 17.9279 5.15028 0.313153 -0.0780774 0.303622
2113 2 10.7383 18.0923 6.95455 0.0219762 -1.88147 -2.19847
2116 2 12.5052 18.0206 8.80339 -6.16521 -3.98225 5.36094
1216 2 12.5021 17.8618 5.17981 -2.25782 -5.46176 -2.64187
1215 2 10.6597 19.7206 5.19924 0.439575 -1.50387 -3.96816
1276 1 12.389 21.5492 5.26104 2.27427 -1.05986 -3.67354
2114 1 12.3738 19.7555 6.91069 0.855309 -0.508256 -1.58714
2173 2 10.7154 21.4616 7.14416 -2.423 -2.6453 -5.26195
2115 1 10.5785 19.6294 8.89351 0.880533 -1.09717 -0.150857
2176 1 12.5328 21.4553 8.75178 -1.47492 -1.53705 -1.96109
2120 1 16.0642 17.8978 8.7204 2.393 -2.60975 3.02533
2117 1 14.1389 17.89 7.03129 0.933898 -4.85971 -1.15397
1219 2 14.163 19.6646 5.28532 -2.75163 0.635527 0.615605
1280 1 15.9339 21.4763 5.23837 -0.315412 0.744368 2.05552
2118 2 15.9902 19.7544 7.00535 2.12984 1.00962 -1.19018
2177 1 13.9999 21.5777 6.96659 -2.85809 -0.331769 -3.22193
1223 1 17.6848 19.6393 5.23749 2.3128 2.09232 1.16009
2119 2 14.0721 19.6968 8.56745 -4.3331 2.51564 -2.4918
2180 1 15.9588 21.477 8.67862 -0.217058 4.04481 -5.24572
2123 3 17.7747 19.701 8.70659 -1.21357 -2.72364 -3.97201
2181 2 17.8021 21.5339 6.91109 -2.16144 -4.45986 2.48135
2125 3 21.4744 17.9298 6.89804 -1.83632 -1.33693 2.83479
1227 3 21.437 19.6434 5.11977 3.25859 -3.05992 2.47261
1284 3 19.4704 21.4048 5.29197 1.04588 2.71332 4.86314
2122 3 19.6354 19.5828 7.03467 -5.26801 -3.98217 0.294251
2185 3 21.5248 21.4031 7.00945 0.926671 -0.526548 -2.9906
2127 3 21.2991 19.5685 8.83078 1.62769 -2.11883 -2.74408
2184 3 19.652 21.464 8.73685 -0.990242 1.02161 -0.826044
1231 3 24.9991 19.5219 5.36378 2.61907 -1.24725 1.49532
1288 3 23.1739 21.2927 5.2942 -0.634283 -2.1565 2.596
2126 2 23.2062 19.6449 7.02244 -3.32434 -1.99663 0.741648
2189 3 24.9823 21.3188 7.03696 1.54298 -0.545783 0.999897
2188 3 23.1516 21.3493 8.86435 -0.300544 2.4316 5.33184
1292 3 26.693 21.447 5.2081 -1.63161 3.55093 -1.06248
1267 2 3.46117 23.2401 5.29558 2.69338 0.384188 -1.46219
1324 2 1.76237 25.0754 5.15383 -2.61403 -0.908082 -0.09041
2162 1 1.85883 23.2942 7.00344 -0.0898171 -0.518116 -1.02731
2225 3 3.51064 25.1138 7.00185 1.71325 3.64069 -1.23709
2224 3 1.73508 25.2091 8.76974 1.98564 -0.41477 3.5851
2167 2 3.4466 23.306 8.80299 0.381307 -1.93069 1.19852
1263 1 0.0366811 23.444 5.15065 -1.10382 1.40694 -0.527104
1271 3 7.11184 23.2232 5.34027 -0.475672 -1.40658 3.7333
1328 3 5.30041 25.0567 5.27624 -1.85669 0.65381 -3.34156
2166 1 5.17211 23.3727 7.05365 -2.52026 1.03517 2.54198
2229 2 7.04882 25.0414 6.96657 1.5588 -1.25967 2.16354
2170 3 8.8705 23.2581 7.13688 4.38223 1.99346 0.32476
1332 3 8.88797 24.9837 5.28626 1.24196 0.819002 -0.363598
2232 2 8.77196 25.1459 8.78247 -0.42207 1.17574 0.379839
2171 1 7.02178 23.3044 8.7097 2.53522 0.454251 1.49356
2228 2 5.31321 25.2033 8.87692 1.27957 -2.68569 -4.2533
2235 2 10.6748 26.7485 8.81054 -0.542467 0.0973535 1.7933
1275 2 10.633 23.1968 5.37223 0.0633161 -1.16539 2.38591
1336 2 12.5472 25.0196 5.2704 -0.217687 -1.55486 -1.62097
2174 1 12.4134 23.3703 7.06013 1.37562 2.07029 -1.94733
2233 1 10.6626 25.0319 7.04057 0.95655 -0.400217 1.44756
2236 3 12.5701 24.8849 8.89332 2.37321 3.38385 1.97616
1335 2 10.7515 26.7071 5.30731 -0.0649749 -1.74477 0.20183
1279 2 14.2744 23.2483 5.13918 -2.10838 -1.44319 -3.42892
1340 2 15.9598 25.1195 5.29405 -2.82569 1.13654 2.29742