ITEM: TIMESTEP
68400
ITEM: NUMBER OF ATOMS
13500
ITEM: BOX BOUNDS pp pp pp
-2.0034387108335494e-02 5.3540034387101784e+01
-2.0034387108335494e-02 5.3540034387101784e+01
-2.0034387108335494e-02 5.3540034387101784e+01
ITEM: ATOMS id type x y z vx vy vz
7 1 3.68151 1.87005 1.80884 3.76531 2.2157 1.18906
64 2 1.70861 3.61154 1.7475 2.65402 -1.54433 1.34396
902 2 1.81388 1.67395 3.46678 0.643332 2.5206 -1.76915
965 1 3.49597 3.56496 3.54778 -1.49285 -1.79762 0.530419
2 3 1.72807 1.72214 0.136228 2.78435 1.70259 -3.7528
961 3 0.0151393 3.50789 3.58238 0.436519 -0.925113 -1.1936
3 3 -0.0110558 1.76264 1.77149 -0.44768 -3.56917 -0.90093
61 3 0.0789406 3.64228 0.00240349 -0.540255 -0.316226 -0.155997
65 1 3.53843 3.65685 0.0121954 -3.19789 -0.214593 1.93044
11 3 7.2566 1.67031 1.76223 1.17439 0.90432 -1.22121
68 2 5.4264 3.62842 1.68223 -3.03092 0.655063 -0.159738
906 2 5.45416 1.75589 3.50429 -0.378845 1.15265 -0.589188
969 1 7.18294 3.64652 3.45141 -0.0684834 1.51786 2.43324
910 1 8.80445 1.92696 3.63214 3.32659 2.03813 -3.20671
72 2 8.78926 3.56167 1.62081 -3.74909 -3.58154 0.930348
8 1 5.35723 0.0460063 1.77243 3.30811 3.93389 1.05731
15 2 10.7266 1.72251 1.66327 1.96798 -1.55443 4.79171
76 1 12.433 3.62261 1.79325 1.10985 4.37317 -3.84363
914 3 12.3749 1.82871 3.47659 0.690769 -0.690421 0.478863
973 1 10.6564 3.65276 3.34556 -3.43702 2.00973 -2.21018
913 1 10.6435 0.117927 3.50886 -1.98737 0.298862 1.90344
19 2 14.1632 1.70321 1.83128 -0.294453 1.11018 2.42004
80 3 15.973 3.50895 1.81656 -0.631065 -1.47265 -3.30775
918 3 16.141 1.76082 3.60232 -0.0978017 -0.00171255 3.78454
977 3 14.1982 3.60077 3.54527 2.16644 -0.513671 2.84771
23 3 17.6081 1.66894 1.76224 5.253 6.95427 1.68949
77 1 14.2032 3.56486 0.0668566 2.23986 0.541059 -1.73616
981 3 17.9184 3.55283 3.50955 -1.13068 -0.341089 1.78625
27 3 21.3612 1.88928 1.8093 -0.213962 -3.7551 1.80443
84 3 19.4795 3.55208 1.75093 -0.677893 3.36724 3.0766
922 3 19.5358 1.74864 3.40879 1.15627 2.86812 -3.56939
985 3 21.4335 3.68027 3.46258 -3.12646 -1.81537 2.37558
925 3 21.4178 0.115944 3.37166 1.01638 0.948857 -2.4112
24 3 19.4346 0.114415 1.5323 -0.937658 4.8701 0.201291
31 1 24.9921 1.91135 1.68684 -0.402807 3.28364 0.910681
88 3 23.0075 3.65481 1.57786 1.56171 -2.54433 -1.05429
926 3 23.2273 1.96726 3.37879 0.615202 -0.138493 -0.883276
989 2 24.9882 3.57079 3.37404 -0.162567 -1.58982 2.38749
92 2 26.5553 3.64899 1.68376 1.14945 -4.09291 -3.6317
28 3 23.2386 0.099074 1.62388 -1.01146 -3.5042 3.94936
930 1 26.6823 1.85627 3.38868 1.12993 0.815706 -0.362964
32 1 26.7373 0.19534 1.58892 -1.32384 0.734938 -2.11415
29 2 24.7984 0.190212 0.00419214 0.749325 -3.96821 1.95267
89 1 24.8991 3.59635 -0.0137377 -1.15256 1.78317 1.0005
67 3 3.56006 5.29669 1.79535 -1.58897 -1.19709 -2.62014
124 3 1.83048 7.10361 1.63941 -0.236841 -2.76509 -0.490314
962 3 1.7829 5.43133 3.49054 1.33999 -0.0923687 -1.87654
1025 3 3.50438 7.16852 3.4439 -1.04953 1.77025 0.583554
123 1 -0.0153612 8.8549 1.65323 -1.41784 -0.930314 -0.730429
71 1 7.11722 5.46128 1.59471 -2.37562 5.62702 -1.60898
128 3 5.33557 7.10831 1.88825 1.52671 -0.520979 -1.56852
966 2 5.31166 5.21948 3.56057 -3.3124 0.227595 -1.35949
1029 3 7.15675 7.29048 3.55715 0.433615 -4.31351 -1.05068
132 2 8.95733 7.08781 1.58786 -2.15717 -0.926163 0.335355
970 2 9.00043 5.25354 3.33904 -2.70007 1.86177 3.54615
75 1 10.6634 5.44334 1.61298 -0.849879 0.840337 -3.69945
136 1 12.4835 7.33088 1.78471 0.305742 0.631231 -2.32017
974 2 12.5341 5.38629 3.47823 1.53811 -0.0306179 -0.99948
1033 1 10.6558 7.10135 3.48723 2.44879 0.255986 0.180707
1034 2 12.5636 8.7112 3.51236 -0.983246 -1.24968 -1.44263
135 2 10.6189 8.8406 1.5936 0.834719 -1.10633 1.17997
79 3 14.2544 5.40569 1.73532 -0.64573 1.28857 -4.23412
140 3 16.1182 7.04286 1.65954 2.61163 0.203616 0.286768
978 3 15.9998 5.25052 3.55511 1.45025 2.96403 1.29005
1037 1 14.4022 7.02419 3.46353 -0.817503 -0.458444 -3.25984
83 3 17.6715 5.15885 1.65887 0.278814 -1.70318 1.36749
1041 3 17.6993 7.15232 3.42359 1.95233 2.47157 0.517686
139 2 14.4478 8.83819 1.68892 -3.1354 4.07163 4.50657
87 3 21.2699 5.30842 1.67269 0.349942 3.59013 1.65637
144 1 19.4476 7.18039 1.5923 0.974472 -0.991822 -3.18428
982 3 19.5269 5.39274 3.49077 1.2158 3.02102 0.735171
1045 3 21.2396 7.17765 3.52338 -2.53988 -1.45419 1.32531
147 2 21.4216 8.85017 1.58468 -2.00079 4.25398 2.26886
145 2 21.3752 7.00718 0.00398055 0.880696 2.43859 -3.91673
1042 1 19.484 8.89191 3.36505 2.03356 -1.37104 -1.82518
91 2 24.8865 5.39817 1.66868 1.29275 -1.27555 -0.464564
148 1 22.9946 7.16534 1.66233 4.04225 -0.763297 -0.446858
986 3 23.0845 5.32726 3.43552 3.79493 -1.80025 -2.80468
1049 1 24.8957 7.12995 3.31919 -1.55295 -1.89855 0.395709
151 2 24.8593 8.86878 1.66502 -2.22769 1.84528 0.40318
990 1 26.6765 5.38365 3.40218 -0.589958 -2.67456 -1.55878
150 1 26.7588 8.83382 -0.0114975 5.68772 -3.97025 3.62959
127 3 3.53435 8.91852 1.66058 -0.710524 1.13799 2.05205
1022 3 1.77011 8.94747 3.40332 -1.14636 2.18549 -2.9046
184 1 1.7787 10.7813 1.57072 2.08781 -2.06282 1.01882
187 2 3.49871 12.3755 1.59319 0.657979 -1.04368 1.12433
1082 1 1.8017 12.5406 3.38438 2.83167 -0.698798 2.98751
1085 3 3.4929 10.7533 3.42684 -1.6858 0.476769 -1.47865
131 2 7.12922 8.97263 1.68277 -0.711934 2.04396 -1.29868
1026 3 5.29021 8.95021 3.45013 2.72473 -0.0246997 0.674305
188 3 5.39678 10.6474 1.63191 -1.47501 1.69628 1.51085
191 3 6.97755 12.3997 1.60142 -2.67364 -1.04251 2.591
1086 3 5.37175 12.4722 3.44496 0.228154 2.05275 1.64255
1089 3 7.01699 10.6743 3.5369 -1.8974 -0.981307 -1.65323
1090 3 8.82025 12.3917 3.45202 2.50575 -3.94982 -0.431236
192 1 8.81167 10.5859 1.7511 0.144746 -1.00173 -2.78123
1030 1 8.95078 8.99483 3.27409 -1.66823 2.30382 0.50285
195 1 10.6992 12.4987 1.63701 1.16555 -2.69987 2.28957
196 1 12.4998 10.6867 1.92509 -1.03723 3.5285 0.529177
1093 2 10.674 10.5946 3.46785 -0.269776 1.72204 0.572632
1094 1 12.2353 12.5677 3.56267 3.44919 -0.947406 1.27201
193 2 10.6115 10.8069 0.0219546 -0.93367 3.79981 2.39832
143 2 17.6144 8.95588 1.63345 0.793598 1.71935 0.366553
1038 2 15.9705 9.02637 3.59143 -0.413705 -4.95185 3.0977
199 2 14.1822 12.5513 1.92232 -2.34366 -2.41917 -1.99986
200 1 16.1273 10.7243 1.6925 -1.34748 0.0556586 0.196337
1097 1 14.2621 10.6679 3.58752 -2.40222 1.90532 -1.77049
1098 2 16.0012 12.5192 3.47308 -0.36302 1.164 -2.14849
197 1 14.1906 10.6889 0.00302633 -4.34213 -3.95832 -5.95702
203 2 17.7191 12.6368 1.58283 4.07378 -1.75985 1.81915
1101 1 17.8112 10.6405 3.44599 -2.09659 1.53954 -1.27458
204 1 19.5228 10.822 1.70421 2.20843 0.767345 1.02217
207 2 21.1795 12.4767 1.78254 -0.383741 -4.8282 -4.66749
1102 1 19.3789 12.5187 3.33887 1.49913 0.819774 -1.25829
1105 2 21.4013 10.753 3.31732 -3.91397 -1.34355 -0.028117
1046 2 23.1435 8.95749 3.45888 2.55323 2.88391 -0.467888
208 1 23.292 10.8384 1.7426 4.02599 3.44364 -0.795099
211 2 25.0895 12.5339 1.59012 -1.21256 -2.41112 -4.86845
1106 1 23.1494 12.5475 3.45216 -1.17016 -0.206084 1.39145
1109 1 24.9211 10.8357 3.3995 -0.614369 0.776097 3.94756
244 2 1.84626 14.2236 1.52006 1.30331 0.534072 -1.48825
247 1 3.5849 16.0201 1.75067 2.57368 -0.870361 -6.14945
1142 1 1.85913 15.9858 3.35208 0.595994 4.16493 2.89968
1145 3 3.44177 14.1687 3.53243 -3.11855 2.77621 0.184787
1141 2 0.111879 14.3496 3.41449 -0.817115 3.03525 2.62579
304 2 1.86991 17.7976 1.59031 -1.80293 0.352028 -2.00205
1205 3 3.55102 17.7913 3.48236 2.01024 -2.77043 1.48814
243 1 -5.33338e-05 16.0783 1.65306 4.10335 2.35371 1.08287
248 3 5.3173 14.1945 1.73302 2.0696 5.01038 -1.91605
251 3 7.12788 16.021 1.74742 -1.88968 0.750581 -3.62249
1146 3 5.32512 16.1068 3.46987 -0.435197 -1.89812 -3.66471
1149 3 7.05457 14.1867 3.56096 1.13045 -1.554 -1.3509
1150 2 8.89838 16.0458 3.46225 1.86332 0.253485 4.71539
250 3 8.79581 15.9865 -0.0176502 -1.36172 -1.56828 -1.5031
252 3 8.81332 14.1449 1.76905 -2.8767 -1.04345 -2.15348
308 2 5.26112 17.7637 1.66342 5.84031 -1.14134 1.22406
249 3 7.07009 14.3483 -0.0142406 -1.3856 -0.437741 -1.13661
255 3 10.6357 15.9827 1.70363 -0.762594 -0.278333 1.36974
256 2 12.4288 14.4012 1.92274 -3.70571 1.34463 2.49059
1153 2 10.5269 14.1993 3.60914 0.696309 -0.254166 -2.35915
1154 1 12.3293 16.0875 3.63156 -1.35389 2.47528 1.71291
316 2 12.4236 17.8014 1.61889 0.231123 -3.9837 0.734426
259 3 14.1604 16.1463 1.7069 -2.01162 -2.43483 6.29328
260 1 15.8403 14.3598 1.68461 -5.17139 -1.32325 -0.735819
1157 1 14.1924 14.2936 3.67314 1.10952 -0.863046 0.0615595
1158 2 15.9811 16.0321 3.43635 -0.146971 1.99121 -3.31001
1161 2 17.8023 14.4039 3.45103 -0.954268 2.45745 -3.59159
257 1 14.2753 14.3412 -0.0232882 1.41846 3.1725 -2.07822
258 2 15.9382 16.0571 -0.0150217 1.2449 -0.493196 -2.9804
1217 1 14.2015 17.7556 3.47957 2.10853 -1.07533 0.234384
320 2 16.0346 17.8293 1.64616 0.561584 -0.843636 -1.70831
263 1 17.8863 16.0983 1.68887 2.12893 -1.17203 2.44807
264 1 19.6184 14.3037 1.71532 0.405697 -0.20367 3.64595
267 3 21.3544 16.0023 1.62298 0.352149 0.124965 1.03333
1162 2 19.4645 16.0887 3.43898 -0.894894 -2.59106 3.26544
1165 2 21.3828 14.2472 3.44953 -1.07885 -0.0932336 -0.0552983
1225 1 21.3764 17.8049 3.39172 -1.28967 2.2875 1.05641
268 3 23.1062 14.2451 1.69731 -1.59464 2.145 -4.66133
271 3 24.8649 16.1556 1.61347 -1.55883 -2.39633 0.676339
1166 2 23.1271 15.9701 3.46388 0.203553 -4.30189 -0.487414
1169 2 24.8452 14.1192 3.51506 3.71572 1.60022 -2.68474
272 3 26.6594 14.4266 1.68773 2.87116 2.50013 1.69076
1170 1 26.4078 16.0229 3.56621 2.66943 -0.367728 -1.29648
1201 1 0.0775568 17.9809 3.25084 -3.45137 -1.17587 -0.465031
307 1 3.61083 19.7538 1.51672 -0.726995 0.29349 1.54414
364 2 1.73986 21.4966 1.56083 -3.55407 -1.0734 -1.41496
1202 1 1.76016 19.8138 3.35903 0.252707 2.64208 2.74936
1265 1 3.58107 21.5555 3.45153 2.8687 0.408613 1.88132
303 1 0.00341294 19.6683 1.64702 3.50998 -1.15976 0.893749
1209 3 6.9608 17.8918 3.34546 -0.149116 1.73594 0.0587365
311 3 7.07285 19.6963 1.60424 -0.106463 0.383301 2.3115
368 3 5.35319 21.4971 1.64655 1.66149 0.81144 -0.0178629
1206 2 5.16652 19.5914 3.39164 1.07408 -0.252248 -1.35026
1269 3 7.09385 21.5603 3.40125 -1.33422 -1.3292 0.52578
1210 3 8.79812 19.6249 3.41822 -0.419072 0.731913 -1.30925
312 3 8.7561 17.8397 1.72976 4.52721 -0.479041 2.63272
372 3 8.8869 21.4663 1.6549 -5.10704 -0.278928 0.211694
1213 3 10.5561 17.8424 3.42487 -1.82269 -1.48111 1.60658
315 3 10.7207 19.6481 1.62557 -2.64565 4.65684 1.33516
376 2 12.5094 21.4162 1.6425 0.450324 3.46823 1.5675
1214 3 12.3217 19.6319 3.43104 -2.92394 0.0261022 -4.32907
1273 3 10.664 21.3779 3.36162 -2.6254 2.79415 -5.16931
319 1 14.2106 19.5518 1.78598 -0.342036 -4.56903 3.73628
380 1 16.1649 21.4122 1.75653 2.53108 -0.603032 0.739353
1218 2 16.0373 19.5775 3.33072 3.62541 -0.587387 2.88583
1277 2 14.2746 21.4434 3.58116 2.20659 -1.70408 2.25835
1281 2 17.8481 21.3408 3.52789 2.4704 0.120551 0.434555
1221 1 17.8483 17.9105 3.4035 -0.273036 3.8332 0.367467
323 1 17.8822 19.5189 1.63941 0.0789825 2.05375 1.74706
324 2 19.6724 17.8835 1.82547 1.81423 -1.49406 -0.102765
327 3 21.4732 19.6646 1.69089 -1.65005 -0.596269 -3.93268
384 1 19.5736 21.552 1.63404 -1.68403 -2.49796 3.02518
1222 2 19.6062 19.689 3.4066 2.33067 -4.50114 -2.18543
1285 3 21.3956 21.4084 3.41548 1.55451 3.88733 0.250315
385 3 21.5152 21.4127 0.034376 -2.98931 -2.11532 1.28995
1229 3 24.9069 17.8566 3.51758 -0.574048 2.3076 -2.11481
328 3 23.1902 17.8703 1.75086 -2.14495 1.18467 0.280319
331 3 24.8312 19.6697 1.75516 -1.13803 -1.96081 3.63189
388 3 23.2923 21.4775 1.62704 -0.694881 1.78213 -3.50741
1226 3 23.2276 19.6217 3.53168 -1.09467 -4.28274 -2.22546
1289 3 24.9526 21.3833 3.49491 0.0332087 -2.11296 3.10041
332 3 26.6972 17.9507 1.69171 2.96185 2.67011 1.04921
392 1 26.6355 21.4571 1.69921 -1.72277 0.93332 -1.45533
367 2 3.60041 23.3535 1.54279 -0.700118 3.15931 1.07249
424 2 1.55503 25.0679 1.68762 -0.842049 -2.52908 2.33582
1262 1 1.84657 23.4027 3.28354 1.85532 1.37781 0.779016
1325 1 3.57922 24.9841 3.51236 1.86455 -2.40346 0.0188325
427 3 3.57296 26.6622 1.65024 -3.96803 2.99014 0.0985896
371 3 7.11616 23.3244 1.61627 2.01476 1.14887 1.99206
428 1 5.45858 25.0083 1.78535 -0.75383 1.25073 1.05113
1266 2 5.39619 23.2524 3.43834 1.57312 1.97714 0.0210299
1329 3 7.27074 25.001 3.54145 -1.85013 -0.163358 0.248584
1326 2 5.48023 26.7614 3.5089 -2.27607 2.32117 8.86372
432 3 9.04237 25.0403 1.71203 -2.24098 -0.00397487 1.38877
1270 3 8.9426 23.1673 3.51769 -1.50311 3.2069 -0.372913
375 3 10.6036 23.1267 1.62203 -6.02217 3.49519 -1.7637
436 1 12.4305 24.8527 1.62687 1.04273 2.94444 0.774417
1274 1 12.3701 23.1677 3.40769 -3.99436 1.49961 3.55966
1333 1 10.7176 24.9737 3.69366 1.82407 -1.82656 -1.41853
1330 2 8.94323 26.6888 3.59907 -0.485122 1.08578 3.8255
435 1 10.8756 26.7119 1.83997 -6.47952 -0.520025 -0.894354
1334 2 12.4308 26.7219 3.57664 -2.51333 -2.47086 -1.99745
379 2 14.2688 23.071 1.59188 -0.7076 0.938224 4.67086
440 3 16.006 24.985 1.73044 -0.601322 -4.51599 2.99469
1278 1 15.9947 23.1668 3.48851 -1.86837 -2.44324 -0.562782
1337 1 14.1805 24.9182 3.58112 -5.19101 4.25787 2.13766
439 2 14.1227 26.653 1.67065 -0.80357 -2.45211 1.8505
443 3 17.7348 26.7047 1.82032 4.9917 2.13802 3.11104
383 2 17.7152 23.1677 1.79927 -1.83319 -1.79608 -4.78167
1338 3 15.9302 26.6145 3.50508 -1.06519 -1.65268 0.609699
1341 3 17.7899 24.824 3.60547 -4.50537 -3.48617 1.63103
387 2 21.4584 23.2801 1.65507 -0.539626 4.85809 2.64464
444 3 19.5569 24.9662 1.7231 -1.99251 0.429227 -1.21741
1282 3 19.6422 23.2369 3.36751 -0.92592 -0.20253 -2.48043
1345 3 21.4359 24.9609 3.36084 -2.21668 -1.22318 0.337716
447 3 21.2126 26.732 1.53734 2.31246 0.361917 1.80304
446 2 23.1242 26.7412 -0.0101942 -3.44595 -1.51084 0.185169
391 2 25.1102 23.1745 1.6586 -1.09186 -1.91605 -0.147803
448 2 23.1912 25.0329 1.58214 -2.58482 -3.5775 -0.114315
1286 3 23.1294 23.1646 3.39797 -3.82452 -3.82899 -0.442802
1349 1 24.8571 24.9991 3.34461 -0.898653 -0.210887 0.224352
452 2 26.7015 25.0337 1.63513 -1.49714 -4.29661 1.81416
1290 3 26.6769 23.2319 3.49673 -5.03908 -2.53064 0.123267
907 2 3.46435 1.85481 5.1688 -2.73175 0.344797 6.95657
964 2 1.68358 3.62126 5.33925 0.12074 0.368651 1.77051
1802 1 1.70128 1.94316 7.04098 0.701903 -1.55984 -1.84675
1865 3 3.49786 3.51194 6.98936 -1.27873 -1.9955 3.53067
1807 2 3.59684 1.76988 8.80273 2.65089 2.84014 -1.04381
1864 3 1.88343 3.48722 8.90621 4.56708 0.206104 2.49931
1805 2 3.58042 0.0241759 6.97809 1.43318 -3.40895 -1.55884
904 1 1.67422 0.00951494 5.26742 -2.19023 0.949663 0.0777988
1861 3 0.000410822 3.57366 7.05465 -0.330464 -3.66998 0.775163
911 2 7.06766 1.66451 5.36689 3.01249 -0.566625 0.172543
968 2 5.31477 3.58105 5.28371 -0.100795 -0.705431 -1.29154
1806 1 5.16101 1.80218 7.0411 1.17891 0.0917454 -2.15203
1869 1 7.08062 3.48682 7.0545 -0.258847 -4.83477 -0.309087
1868 1 5.38298 3.52968 8.77989 -0.471904 -3.10189 -2.53469
1811 2 6.92823 1.76174 8.87073 1.35975 2.93633 4.16795
1810 1 8.84472 1.80388 7.20919 0.887944 -0.631706 -2.14252
1809 2 7.00259 0.00269889 7.02242 1.91069 0.128772 2.9702
1872 2 8.97697 3.59757 8.89565 4.09643 -2.55838 1.84635
912 1 8.94898 0.119181 5.39716 2.34427 -0.345205 1.76717
972 2 8.96897 3.62838 5.23407 -3.83821 2.10283 2.89977
1813 2 10.6574 0.0514113 7.30003 2.27948 0.672296 2.28397
915 2 10.6627 1.88318 5.37545 -1.66641 -4.0753 -1.40948
976 2 12.4043 3.64546 5.42118 -0.409549 3.77195 1.51399
1814 1 12.4741 1.75325 7.17856 -3.47726 -5.21731 2.6774
1873 2 10.6221 3.4945 7.28061 -0.342453 4.94433 2.39788
916 2 12.4351 0.046503 5.40185 -2.1648 1.43826 -1.07383
919 1 14.1694 1.77394 5.25478 5.17585 2.49098 -2.7846
980 3 15.9977 3.64587 5.34323 -2.55274 -1.96907 -1.38007
1818 3 16.0606 1.7965 7.05992 -1.38569 4.69871 -1.45711
1877 3 14.136 3.58529 7.23432 1.44638 -3.85823 -5.95788
920 3 16.0245 -0.00735026 5.27881 4.4384 -1.43174 1.64187
1817 3 14.2909 0.120071 7.16725 0.0638336 -2.55879 -1.22777
1820 3 16.1986 0.0650137 8.88337 1.19062 -2.79479 0.756681
1881 2 17.7319 3.6712 6.99084 -3.26722 0.742511 -3.87109
1880 1 16.0758 3.69468 8.84354 0.870746 -0.199425 -3.90338
923 3 17.9931 1.74861 5.37019 2.42361 -1.10872 -2.36302
1823 3 17.9519 1.74211 8.73119 1.20592 0.296393 -2.66384
927 3 21.5052 1.70195 5.29759 2.15815 2.88716 0.85494
984 3 19.6515 3.5568 5.22812 -1.91645 -2.47711 1.89541
1822 3 19.5985 1.86854 6.95245 -2.33712 1.367 -0.505614
1885 3 21.4505 3.61563 6.97507 1.26079 -2.23586 -1.06423
1827 3 21.3371 1.83828 8.80073 1.82694 -2.56414 3.55423
1884 1 19.6071 3.6224 8.83943 3.95861 1.44918 -1.18658
1825 3 21.3214 0.0615951 7.12622 -4.8071 2.38037 -3.3637
924 3 19.6849 0.0292058 5.24439 1.57153 0.884131 -2.784
1821 3 17.9038 0.00194476 7.07836 -0.396761 0.96549 0.525752
1824 3 19.6195 0.0658332 8.89865 2.52892 -0.752309 -2.0584
1832 1 26.7456 0.00590653 8.78356 1.99515 -1.8961 1.29998
931 3 25.0063 1.87545 5.12847 -2.46524 -2.20415 2.26171
988 3 23.2245 3.53671 5.19012 -1.00482 1.97918 1.43332
1826 3 23.2963 1.77498 7.00051 0.498313 0.853456 2.31161
1889 3 24.9699 3.60709 6.95634 -2.90192 3.06537 1.59471
1831 3 25.1642 1.90363 8.78264 -2.28603 1.32086 1.14327
1888 3 23.2686 3.61925 8.72167 0.54083 -2.33296 2.63876
1828 3 23.2107 0.0224435 8.85601 -2.27174 -6.54685 0.717733
992 3 26.7617 3.55979 5.26678 1.07238 -0.654505 2.1353
928 3 23.2704 0.0171986 5.18537 0.677155 3.31973 -0.505654
1023 1 0.0873882 8.8666 5.16105 -2.6351 2.84416 1.64222
967 3 3.49557 5.42178 5.26888 1.96212 5.91242 -2.07705
1024 2 1.68872 7.21749 5.13949 3.29144 1.55898 -0.7908
1862 3 1.72765 5.40911 7.04294 4.56536 -1.51161 0.396836
1925 3 3.52114 7.17471 7.01118 -1.5332 -0.608183 1.38208
1867 2 3.55155 5.13955 8.81091 -3.17932 -0.554175 0.879332
1924 3 1.67846 7.1512 8.768 -0.9239 -4.0203 -2.22723
1922 3 1.72152 8.82832 6.94349 -1.81784 -2.48293 -0.622435
1027 3 3.44731 8.86534 5.22127 1.07187 -0.859443 -2.487
971 1 7.16644 5.48953 5.27922 1.55287 0.211768 -3.89352
1028 3 5.26255 7.17021 5.14175 1.92735 -0.419584 -3.2863
1866 2 5.23464 5.33586 6.99401 1.08316 -1.42789 -0.0989274
1929 3 7.12236 7.15361 7.08329 -0.643272 -0.560971 1.56144
1871 2 7.06379 5.28964 8.88785 0.644546 -4.77749 -0.836133
1928 3 5.30758 7.06285 8.76365 -2.01354 -4.29614 -0.02934
1932 1 8.78959 7.15822 8.89863 -2.07614 3.5784 3.33153
1870 1 8.92395 5.33686 6.99106 1.16611 -2.67926 0.570432
1032 2 8.91527 7.00978 5.21231 -2.60044 0.987601 -3.13448
975 1 10.8269 5.23984 5.28976 -0.593179 4.98033 -1.16948
1036 1 12.4653 7.07837 5.32209 -0.45293 -5.55926 -1.66728
1874 1 12.3108 5.309 7.16959 -2.12895 3.02311 1.63633
1933 2 10.6852 7.17767 7.03993 2.84111 1.6781 -2.10306
1875 2 10.674 5.52812 8.87439 -2.39763 -1.96696 2.96926
979 2 14.2332 5.39047 5.3134 0.179226 1.88485 0.485784
1040 3 16.0282 7.05531 5.22619 -1.31587 1.29494 0.866858
1878 1 16.021 5.33539 7.0919 -1.62022 -2.01089 0.155533
1937 2 14.2324 6.99258 7.02896 0.281485 1.90839 -4.92024
1039 1 14.1348 8.88239 5.34708 2.29776 -0.011221 1.13609
1941 1 17.7308 7.18506 7.03812 2.99313 0.286139 -2.26179
1938 2 15.9852 8.84793 6.96209 2.84081 0.6302 -2.33721
1883 2 17.7531 5.48405 8.88476 -2.00256 -1.28453 -0.688233
1940 1 15.9719 7.15922 8.89993 6.33529 -0.636377 -2.17843
983 3 17.8755 5.32879 5.31489 0.75728 2.29084 -3.68389
987 3 21.3353 5.42784 5.17262 -4.16022 0.509706 0.620535
1044 2 19.5117 7.17449 5.30887 -3.3991 -0.984872 0.271516
1882 3 19.5666 5.37871 7.07615 -0.582431 -1.47043 1.19499
1945 3 21.2898 7.19202 6.93918 3.17913 -0.369168 -2.7076
1947 2 21.3227 8.71064 8.7455 0.606099 -1.48649 -2.20297
1942 1 19.4868 8.79666 7.07239 -2.59468 -2.57326 -4.35536
1890 3 26.6864 5.30722 6.9043 -2.93949 -1.27158 2.91478
1952 3 26.6778 7.12773 8.7412 0.282719 1.62726 -1.05043
1052 3 26.6133 7.08203 5.33534 1.73254 0.450352 0.48378
991 3 24.7888 5.43707 5.13988 1.52527 0.62876 -1.77632
1048 2 23.1415 7.24089 5.16843 -0.0446766 -0.60936 -0.686936
1886 3 23.1647 5.47063 6.97867 -0.494915 -1.20636 -1.47322
1949 2 24.9152 7.10129 7.01201 0.383342 -1.09616 -1.88778
1891 3 25.0119 5.29151 8.8205 -0.11136 -0.723279 1.38545
1948 1 23.1644 7.19152 8.77285 -0.982145 0.219663 1.25381
1946 1 23.0618 8.86595 6.87883 2.15744 -5.26332 5.37681
1083 3 -0.00356568 12.5804 5.33202 2.07942 2.68647 1.2605
1927 1 3.56047 8.93067 8.79412 -0.185463 1.35322 -3.73213
1981 2 0.114109 10.6724 7.02196 1.5054 -1.26563 -2.27837
1084 2 1.66981 10.6593 5.12989 0.277142 -1.47819 1.21691
1087 2 3.54974 12.4188 5.31797 3.65871 1.54233 -0.753893
1982 1 1.72335 12.5457 7.06458 -1.34379 1.83837 -0.639416
1985 3 3.44036 10.7117 7.00989 -3.69548 -0.843178 -0.670286
1987 2 3.61262 12.5056 8.79541 0.767844 6.8383 0.836937
1984 2 1.66102 10.6213 8.72483 0.3979 3.03399 -1.55741
1983 1 0.0895938 12.475 8.85496 2.44951 -0.127136 0.0436056
1031 3 7.11878 8.9199 5.31214 -1.44718 1.47495 3.02794
1926 3 5.40896 9.07048 6.99122 4.32696 -1.44939 -0.0894006
1088 3 5.24437 10.7155 5.1827 2.27961 -0.23135 1.1722
1091 3 7.08031 12.5008 5.31304 3.48975 2.24759 -2.23501
1986 1 5.21894 12.5601 7.04897 3.91146 -2.70633 -2.24638
1989 3 7.16114 10.8298 7.07941 1.22784 2.12183 -0.672975
1990 1 8.834 12.4759 7.05033 -0.0963604 1.34873 -1.16627
1092 2 8.84877 10.6964 5.31709 4.00944 -0.698423 -0.324307
1991 2 7.0212 12.4885 8.84393 -4.47644 -3.76727 -2.65985
1988 3 5.23677 10.7871 8.681 1.82338 1.07987 -3.11782
1931 2 7.11864 8.93866 8.8034 1.38293 -1.66142 -1.67383
1930 3 8.86882 8.99153 7.1394 -0.652145 -1.47556 0.286433
1934 1 12.445 8.92642 7.18238 1.26469 -0.961759 -0.35041
1035 3 10.6527 8.961 5.30722 2.28978 -3.48572 -2.41528
1095 1 10.601 12.523 5.53097 2.77378 -1.2869 -3.01991
1096 2 12.4963 10.7527 5.31514 -2.55783 -0.674296 -2.86748
1993 1 10.7158 10.6997 7.0461 -4.65326 -1.20982 0.805993
1994 1 12.5374 12.5315 7.12114 0.290913 -0.705204 1.91223
1995 2 10.6237 12.6158 8.85347 1.64267 -1.1423 -1.35543
1043 2 17.7648 9.04284 5.21067 1.66073 1.1303 0.410365
1099 1 14.177 12.4188 5.35047 -0.105998 0.43103 -0.403661
1100 1 15.9962 10.7548 5.21976 -0.350825 -0.426264 -0.46708
1997 2 14.1606 10.5898 7.0564 3.53916 -0.214886 -1.87668
1998 2 16.0165 12.5042 7.00588 -0.848789 1.96144 2.32664
2000 1 16.049 10.7062 8.83977 0.855017 -1.84458 5.59251
1939 1 14.2989 8.94624 8.67368 1.64349 0.988295 2.76953
1999 1 14.2779 12.4545 8.87386 0.939558 1.64198 0.154387
1103 1 17.8432 12.3567 5.29032 2.45885 2.96674 2.89499
2001 1 17.9239 10.6954 7.14229 -0.787899 -0.940526 -2.06114
1047 1 21.2931 8.97368 5.22727 -1.88386 -2.61524 1.83106
1104 2 19.6231 10.713 5.13152 3.0353 -3.63755 -0.54558
1107 1 21.2645 12.5009 5.32605 -1.66795 -5.69556 -0.73546
2002 2 19.4253 12.6006 6.96458 4.62079 4.93481 -0.237145
2005 1 21.182 10.7732 7.11362 0.52417 0.847062 -3.24517
2007 2 21.2809 12.4204 8.89362 0.539858 -0.0919066 2.00867
1112 2 26.689 10.8225 5.28023 -0.105019 0.632381 -0.207924
1051 3 24.8879 8.91971 5.21146 -3.28234 -2.2976 -1.3201
1108 2 23.0032 10.7087 5.15228 1.18724 1.66378 1.32601
1111 1 24.8719 12.6195 5.21043 1.87656 1.44571 4.12509
2006 2 23.1766 12.4301 7.1548 -2.11678 2.18793 2.97996
2009 1 24.9489 10.6076 6.99953 1.06137 1.24709 -0.542578
2010 1 26.6132 12.5356 6.98657 4.37623 -0.730528 2.09775
2011 2 24.9643 12.3571 8.88732 3.7072 0.52953 3.22258
2008 1 23.0273 10.4824 8.65778 -0.884134 0.262123 0.60332
1951 2 24.874 8.93213 8.78973 2.6144 -5.00478 -5.04952
2043 1 0.0183592 16.1613 8.88637 0.98525 -0.674002 0.186139
1144 1 1.84294 14.1424 5.24414 0.303119 -0.185389 3.2598
1147 2 3.52927 16.0792 5.25735 2.63968 1.01689 -0.47119
2042 1 1.80263 16.1695 7.0958 0.695367 0.0826815 2.71902
2045 2 3.35471 14.3257 7.09401 4.29029 -1.1404 0.985564
2044 1 1.63806 14.3654 8.71269 -2.67895 3.309 2.12226
2047 2 3.47666 15.9907 8.86917 2.79515 -0.778065 -0.585202
1143 3 0.0851829 15.9773 5.31153 4.54549 -1.33868 -2.11737
2041 2 0.0218567 14.347 7.01024 3.00065 0.68589 1.10322
1148 3 5.21578 14.3252 5.2054 -2.73987 -3.80713 2.20434
1151 2 7.11654 16.0455 5.30682 0.982555 -3.45804 -1.02374
2046 1 5.30296 16.0112 7.10089 -0.379719 1.13519 -1.80908
2049 2 6.96296 14.276 7.06643 3.21461 -2.14052 0.58836
2051 1 7.08157 16.0427 8.80519 1.71019 3.25032 -2.02361
2048 1 5.34266 14.354 8.8284 -5.41147 0.820077 1.21007
2050 1 8.81554 15.9585 6.98337 1.79609 1.6631 3.06461
2052 1 8.75565 14.2479 8.75609 2.56837 -0.114018 -0.731013
2112 2 8.76355 17.7789 8.83498 2.00622 -3.24583 -1.72504
1152 1 8.98914 14.2117 5.26701 1.10202 1.01097 -4.44815
1155 1 10.6881 16.1154 5.37014 -0.584621 -0.7138 1.97314
1156 2 12.4259 14.2143 5.25876 -1.0066 2.27566 -3.5605
2053 2 10.7079 14.3781 7.08742 -1.20042 0.758832 3.04931
2054 1 12.5344 16.1254 7.13297 0.307331 2.60571 3.28733
1216 2 12.4329 17.8072 5.27874 -1.92572 1.92858 -0.36989
2113 2 10.4671 17.7877 7.10226 -0.891797 -0.894045 2.44078
2056 1 12.4892 14.2762 8.81073 -1.60081 4.08312 -2.50133
1159 2 14.2238 15.9731 5.41953 -1.71678 -1.56163 2.67373
1160 1 16.1426 14.2174 5.29716 -0.41387 0.0354028 -2.27697
2057 2 14.2262 14.1278 7.08375 1.23181 0.871846 -0.865298
2058 1 16.1171 16.0958 7.1115 -1.81412 0.890601 -1.48971
1163 1 17.8262 16.142 5.30977 2.10459 3.29539 -0.773115
2059 2 14.1972 16.0359 8.84538 2.42365 0.736157 1.45533
1220 1 15.9752 17.687 5.02564 -2.47722 3.61459 -1.57311
2121 2 17.6376 17.7957 6.96655 1.42202 2.38616 6.95259
2061 2 17.8915 14.388 7.24776 0.0449402 -3.14345 0.804132
1164 2 19.3993 14.3066 5.20652 -1.76093 0.441469 0.153483
1167 1 21.3702 16.1051 5.08614 -6.79822 1.31152 0.0473808
2062 3 19.5265 16.1074 7.04781 2.773 0.726858 -2.57511
2065 1 21.288 14.2484 7.06172 -1.64177 -1.57053 -0.932755
2067 2 21.412 16.0878 8.77083 -2.71562 1.89732 -0.720292
2125 3 21.3413 17.7486 6.97889 0.173724 -2.11078 2.8735
1168 2 22.958 14.2521 5.40705 3.77381 2.39063 4.57132
1171 1 24.9306 16.0582 5.37768 -0.264346 1.42859 -0.420694
2066 1 23.1378 15.9893 7.02645 -1.4194 1.74194 0.495375
2069 2 24.9174 14.2199 6.92546 0.372646 3.38187 -0.902254
2070 3 26.7255 15.9778 7.0464 2.1093 -2.47682 1.1603
1172 2 26.741 14.3747 5.33151 1.3411 4.50579 2.15653
2071 2 24.9912 16.0745 8.89103 2.48822 -1.3936 1.44352
2072 1 26.671 14.1827 8.89326 2.62327 -1.25894 1.38587
1204 2 1.92447 17.8693 5.11157 -0.885616 2.28858 0.983927
2161 2 0.113172 21.5939 6.7962 -0.0544064 -0.0970519 0.867077
1203 1 0.08088 19.6036 5.29741 -2.09554 0.966425 -0.119945
2105 1 3.52845 17.9841 7.10269 -0.906334 1.73857 0.797106
1207 2 3.50329 19.8119 5.26018 2.54872 -5.11843 0.889718
1264 2 1.83344 21.5456 5.20357 -0.271525 -0.414166 0.628278
2102 1 1.92506 19.6864 7.00838 -0.287614 1.50748 -2.79633
2165 1 3.57081 21.4581 7.21529 -1.81891 2.80495 -0.463844
2103 3 0.0181504 19.6285 8.76896 -0.493334 3.91487 5.73317
2101 2 0.215986 17.8547 7.10748 -0.768039 -1.90506 3.23261
2109 2 7.18245 17.8537 6.9685 0.776805 0.448056 -1.72224
1212 3 8.82936 17.9155 5.21838 -2.05497 1.84809 -0.671652
1208 1 5.20601 18.0111 5.38927 3.30106 0.0989966 1.95174
2108 2 5.32588 17.9192 8.68362 -1.48258 0.491172 3.54837
1211 3 7.0369 19.7173 5.09766 1.19439 1.50773 -3.82079
1268 1 5.24577 21.4668 5.37393 2.79115 -2.28971 -0.85249
2106 2 5.51751 19.7198 7.15096 -2.75045 -2.38343 -2.06108
2169 2 7.11906 21.457 6.93957 -2.10377 -2.84272 -2.49871
2168 1 5.43511 21.418 8.8526 1.66697 -2.76281 1.33967
2111 1 7.14705 19.4792 8.81702 0.460164 0.761157 0.745592
2172 1 8.8619 21.4226 8.82118 0.230183 -2.21677 -3.61382
2110 1 8.89581 19.707 7.04947 -3.07706 -3.78759 2.36968
2116 2 12.5009 17.879 8.81342 -0.896437 2.74083 1.32586
1272 3 8.98384 21.362 5.20692 -2.78359 0.347129 0.61984
1215 2 10.6091 19.6865 5.29559 1.06177 2.96926 -0.213443
1276 1 12.4737 21.3327 5.35031 -2.46295 -1.05136 2.11818
2114 1 12.4331 19.5501 6.95045 -0.194552 -1.02674 -1.20592
2173 2 10.6618 21.3356 7.13479 2.14171 3.2162 0.906788
2115 3 10.7457 19.6115 8.86425 3.43549 0.869457 -1.60708
2117 1 14.2364 17.911 6.98841 -0.589339 0.265251 -0.869244
1219 2 14.3039 19.6782 5.05253 3.56262 1.30372 -0.121317
1280 1 16.1103 21.5003 5.24517 -0.113066 1.31886 0.0288898
2118 2 16.0499 19.4721 6.96231 7.04276 0.961531 -1.68654
2177 1 14.3913 21.4131 6.98947 -1.46817 -1.5079 -0.0797764
1223 1 17.7828 19.5266 5.16783 1.57338 0.501437 2.70543
2119 2 14.307 19.5903 8.76564 -0.934675 -4.35335 -1.23884
2123 3 17.7956 19.571 8.83885 -2.41095 2.82138 1.12784
2180 1 16.1091 21.2929 8.89646 -0.259005 0.0738847 -1.46842
2181 2 17.8828 21.3371 6.95665 2.93564 0.759138 -0.620167
1224 2 19.6245 17.9346 5.12867 0.995154 0.0249227 1.71526
1227 3 21.351 19.6029 5.37246 0.340951 -1.93207 -4.45718
1284 3 19.6346 21.4406 5.41468 3.03785 -0.340272 3.32255
2122 3 19.5184 19.5875 7.03545 -1.46308 1.96169 -1.3623
2185 3 21.3527 21.3542 7.10338 -0.249711 0.478841 -0.751749
2127 3 21.3056 19.6783 8.80473 2.88521 -1.26049 2.81077
2184 3 19.616 21.4039 8.83514 2.67024 3.41593 -2.56123
1228 2 23.3361 17.8815 5.36181 -1.65855 1.80266 0.876131
2130 3 26.5876 19.5792 7.00886 3.84804 -2.17083 2.38669
2129 1 24.809 17.8663 7.15891 0.407561 -1.27074 -0.740364
1292 3 26.6657 21.4941 5.28197 0.484091 -0.756836 0.813941
1231 3 24.9026 19.6502 5.2657 -0.542661 0.149079 1.26915
1288 3 23.1199 21.4462 5.25084 0.613863 2.17246 3.0507
2126 2 23.1871 19.6101 7.01866 -1.94075 2.2326 -0.598564
2189 3 24.848 21.4736 7.04295 0.36782 -3.31856 1.48251
2188 3 23.072 21.3448 8.80713 -0.095623 1.81062 -0.969782
2131 3 24.9774 19.6775 8.90227 2.09999 1.91148 -0.443247
1232 2 26.6125 17.8874 5.34351 -3.37575 -0.38459 -3.34024
2128 3 23.1411 17.8279 8.81979 3.87212 -6.22588 -2.91883
1267 2 3.60625 23.2677 5.22867 4.67879 1.15232 0.629088
1324 2 1.86699 25.0864 5.12714 -2.31755 -5.52103 -1.68202
2162 3 1.77469 23.4218 6.9974 -0.49334 3.46949 1.79023
2225 3 3.48989 25.1492 7.04525 1.63482 -2.11256 1.40712
2224 3 1.75581 25.1309 8.88004 3.2425 -2.42297 4.61409
2167 2 3.49002 23.1725 8.88299 -2.57443 0.0342451 -0.854357
2221 3 0.00972499 25.0404 7.09896 -4.06427 -2.6864 0.727558
2163 3 0.0682183 23.1217 8.78134 1.31244 4.40519 1.17657
1271 3 7.22231 23.259 5.16912 3.5555 2.2985 2.58256
1328 3 5.42696 25.001 5.27718 2.40157 3.47224 -1.63324
2166 3 5.41653 23.374 7.00978 -3.16317 -4.16648 -1.21383
2229 2 7.12946 25.0977 7.09637 -1.42403 -2.26362 -0.0866073
2171 1 7.17632 23.3482 8.83225 -0.634199 1.9761 -1.8068