ITEM: TIMESTEP
132600
ITEM: NUMBER OF ATOMS
13500
ITEM: BOX BOUNDS pp pp pp
-2.3055611896811712e-02 5.3543055611882870e+01
-2.3055611896811712e-02 5.3543055611882870e+01
-2.3055611896811712e-02 5.3543055611882870e+01
ITEM: ATOMS id type x y z vx vy vz
7 1 3.39535 1.91956 1.659 3.16865 2.11299 1.67637
64 2 1.74509 3.63996 1.70909 -0.941452 -2.51705 -0.606455
902 2 1.792 1.78879 3.43801 0.33108 -3.29088 0.315646
965 1 3.56379 3.73721 3.41327 5.14373 -1.31279 1.90517
905 1 3.44975 0.121134 3.44039 -4.18114 2.19968 0.949812
4 1 1.70169 0.0536028 1.46346 -2.99914 0.552303 -3.45112
3 3 -0.0292495 1.85594 1.56965 -3.16097 1.23832 0.70345
11 2 7.07526 1.88637 1.63692 -0.302987 1.98012 0.445711
68 2 5.2037 3.61419 1.65138 -1.24604 -4.40822 0.999897
906 1 5.29825 1.81344 3.49382 -2.1796 0.773041 1.04272
969 1 7.08618 3.65489 3.58753 -2.76164 1.25139 3.41273
8 1 5.16586 0.100314 1.62626 -1.3779 1.2485 -0.791381
909 2 7.06821 0.0165926 3.48483 1.01609 -1.14423 5.23906
72 2 8.88197 3.67479 1.73432 -0.659724 -0.432955 -1.01795
910 1 8.89527 1.90201 3.49231 -1.41824 -4.48135 -1.48151
15 2 10.6233 1.89369 1.61417 -0.894698 3.22293 3.71999
76 1 12.458 3.60322 1.75031 1.55779 0.983307 0.189131
914 3 12.5099 1.83436 3.45257 -1.9187 4.17725 1.69219
973 1 10.7159 3.8047 3.52625 -0.292148 -2.25691 -0.831967
16 1 12.6001 0.169691 1.70453 1.92056 1.77786 -1.62215
913 2 10.631 0.199842 3.53547 2.17438 -1.19206 1.04094
19 2 14.4048 1.89407 1.64097 -1.93001 -3.98913 -4.4783
80 3 16.0236 3.72386 1.67097 -2.08451 -1.94738 1.68049
918 3 16.1051 1.86046 3.49884 1.61139 -0.502217 2.49662
977 3 14.1889 3.66493 3.46749 -3.06174 0.466328 1.05485
20 3 15.9496 0.129881 1.66374 -2.09768 -4.8466 0.504685
921 3 17.7834 0.00121199 3.31133 1.22394 -2.4335 2.34247
917 1 14.3638 0.0792915 3.55022 -0.638598 0.104553 -0.442647
23 3 17.7495 1.93241 1.6289 -1.98024 2.24363 -3.23024
981 3 18.0234 3.74937 3.41234 4.11712 -1.49437 -0.262155
27 3 21.4198 2.00631 1.68386 -0.147066 2.80148 -0.809246
84 3 19.6482 3.65051 1.63713 1.72319 -2.98574 -1.70502
922 3 19.6269 1.80646 3.44745 -0.575312 -1.81722 0.0415249
985 3 21.335 3.78049 3.51555 -2.33897 -2.48897 -2.02828
925 3 21.2613 0.10187 3.36454 0.278509 -0.68217 2.42602
24 3 19.6043 0.180031 1.67377 -1.6597 1.39194 -1.71859
25 3 21.3972 0.169034 -0.00721373 4.55845 1.01011 -2.48714
31 2 24.9481 1.71683 1.67411 -0.0289345 -1.28065 -2.38095
88 3 23.316 3.66789 1.69987 0.47458 3.37567 -1.62166
926 3 23.1214 1.90216 3.48503 0.848872 -0.192241 3.47661
989 3 24.8503 3.69983 3.46469 3.97679 -1.59593 -2.54565
28 3 23.165 0.110958 1.83919 2.53036 1.84046 1.7493
929 2 25.005 0.0747672 3.57112 4.17772 -0.854833 0.722868
92 2 26.5945 3.63593 1.64436 2.11776 -1.82476 -2.41855
32 1 26.6988 0.099707 1.6427 -0.10119 -1.64213 -5.55137
930 1 26.6578 1.90199 3.56192 -1.90889 2.75201 -0.516736
67 3 3.49146 5.38337 1.7862 0.423097 0.260375 1.47738
124 3 1.78672 7.19253 1.71609 0.553724 -4.29149 -0.246022
962 1 1.67423 5.18932 3.38058 -1.39783 1.13135 -1.36341
1025 3 3.49323 7.18446 3.46422 -0.668977 -2.7393 -0.0253383
1021 2 0.0196092 7.20956 3.54104 2.7365 1.92152 5.7732
71 1 7.09161 5.42684 1.66799 -1.80764 -2.66164 0.914621
128 3 5.16821 7.37036 1.74483 -0.305255 2.06388 2.82437
966 2 5.30787 5.46856 3.35753 2.75711 -2.09467 2.49248
1029 3 7.19388 7.45074 3.48565 2.22126 0.655587 -0.97256
132 2 8.88653 7.21589 1.6014 0.705001 5.40413 1.65972
970 2 8.81116 5.48528 3.40353 3.31634 3.86076 -1.12789
66 2 5.24617 5.33865 0.0339276 3.3649 2.08831 3.87996
75 1 10.7531 5.41668 1.68712 -5.04565 -0.276118 -2.46997
136 1 12.3182 7.30116 1.59779 0.682274 1.75694 -2.24067
974 2 12.4683 5.47734 3.32332 2.06382 4.53097 1.41702
1033 1 10.81 7.21351 3.51038 0.205158 1.51128 0.307198
79 3 14.2894 5.42221 1.4946 -2.69503 1.53339 1.42624
140 3 16.1494 7.27802 1.66577 3.54939 -1.43388 -0.4326
978 3 16.0636 5.54136 3.48812 1.63845 3.13828 -0.196303
1037 3 14.3816 7.20253 3.33586 0.879823 -2.53326 3.01347
83 3 17.8126 5.39745 1.644 3.07888 0.649783 -3.72344
1041 3 17.7821 7.2493 3.58412 2.97683 -2.97518 4.02326
87 3 21.3806 5.51721 1.62591 -0.286072 2.67386 1.58477
144 2 19.5908 7.09815 1.62494 0.309559 -2.22792 4.28144
982 3 19.5328 5.44244 3.49763 -0.865242 0.609536 6.4578
1045 1 21.534 7.31024 3.34339 -1.53815 -0.234193 1.02214
91 2 24.9675 5.39557 1.53705 0.924148 0.152839 1.98896
148 1 23.2833 7.18543 1.63304 -1.96427 -0.330696 -0.542075
986 2 23.2776 5.42268 3.43054 1.15672 1.75283 0.516399
1049 3 24.9612 7.24132 3.4899 -0.598723 -0.420113 -0.655913
990 3 26.6886 5.3719 3.37279 -2.65988 -0.424494 -0.445892
152 3 26.745 7.144 1.58267 -1.88807 1.44852 -1.07374
1022 3 1.77548 9.0322 3.38801 -0.28539 0.863727 -1.67344
127 3 3.41939 9.03988 1.59916 -0.657486 3.03754 1.17493
184 3 1.57551 10.7357 1.52713 -2.78219 -2.63882 2.56625
187 3 3.45748 12.5294 1.60775 2.94417 1.96773 -0.665742
1082 3 1.68421 12.6742 3.40422 -3.40483 -2.05227 -0.645398
1085 3 3.45545 10.8026 3.43388 -0.164402 1.39157 0.418378
1026 3 5.3343 9.06894 3.52428 1.00807 1.53288 1.30402
131 2 7.14709 9.0997 1.62029 2.63626 -0.00900705 3.16249
188 3 5.29355 10.7785 1.63855 3.21808 0.0242285 2.08336
191 3 6.9852 12.6079 1.46306 1.73245 1.01348 1.41527
1086 3 5.2617 12.5797 3.31633 2.17851 -0.452436 -1.67713
1089 3 7.06245 10.7637 3.51232 -0.32453 1.32825 0.61418
1090 3 8.86313 12.5751 3.39559 3.69202 0.575905 -3.31443
192 3 8.75921 10.8711 1.60913 3.42238 2.97998 -0.203942
1030 1 9.03522 8.96489 3.33158 1.78022 -1.84376 -0.702475
1034 1 12.3385 8.94747 3.45866 -2.52004 -4.51732 -1.2351
135 2 10.5514 9.14014 1.71675 -0.758341 -6.22859 0.443594
195 1 10.6637 12.5193 1.72488 -1.41803 3.9006 2.93705
196 1 12.4601 10.7734 1.59257 1.23918 -0.120033 -4.48405
1093 2 10.6539 10.9192 3.38373 -1.20464 3.10193 1.46658
1094 1 12.4442 12.6377 3.41346 -1.28732 0.0469426 -1.1923
1038 1 16.0711 9.12563 3.29765 -2.44345 1.83489 -3.6188
139 2 14.1786 9.15533 1.60279 4.73133 0.753531 2.68109
199 2 14.1658 12.5764 1.63875 1.43336 -5.22765 -2.4488
200 1 16.1084 10.8801 1.68275 1.41556 -4.36263 0.103912
1097 2 14.2915 10.769 3.39223 -0.939187 2.08934 1.17627
1098 2 15.9025 12.6086 3.53331 1.14153 3.27826 0.979617
1101 2 17.8768 10.9026 3.39494 2.15541 1.56719 -0.91809
143 1 18.0029 9.14423 1.69533 0.382704 -2.69498 -1.04252
203 2 17.9846 12.6338 1.58146 -1.74379 0.950119 -2.32248
1042 1 19.6802 9.02393 3.34416 1.58675 -1.81551 3.85697
147 2 21.4248 9.00377 1.53987 -1.7746 -1.09304 1.31586
204 1 19.7701 10.9189 1.64343 -0.447901 0.0718446 1.31395
207 2 21.3894 12.4875 1.71754 1.66411 -0.187062 -1.66285
1102 1 19.695 12.6604 3.38587 -0.250698 -3.69971 0.610897
1105 2 21.4058 10.6894 3.51684 1.36393 -1.02284 3.57496
1046 2 23.1193 8.96635 3.40461 2.46339 -1.06545 1.43297
151 2 24.9403 9.00437 1.66827 -2.6933 -2.53928 -2.23468
208 1 23.2073 10.8284 1.60078 -0.807116 -0.12742 2.51157
211 2 24.9707 12.5177 1.6367 -0.668378 3.74427 0.571187
1106 1 23.2209 12.552 3.42702 -1.89692 0.593804 0.527508
1109 1 24.9621 10.8057 3.54068 3.08638 3.43171 3.45724
1110 2 26.7238 12.5046 3.42712 1.04056 2.02799 -3.53609
212 2 26.7522 10.7546 1.74193 -1.54111 0.686542 -1.9651
244 2 1.73392 14.5065 1.54208 0.751233 4.61647 2.15896
247 3 3.60922 16.2323 1.67864 0.251865 0.803858 -2.62492
1142 1 1.63845 16.1341 3.45338 6.49827 -1.92889 3.6244
1145 2 3.31416 14.5545 3.40302 2.48853 -3.30207 3.87946
243 1 0.0163012 16.2066 1.58244 -3.39106 -2.2628 -3.45436
248 3 5.28504 14.415 1.55656 -2.60541 3.15522 -2.32883
251 3 7.02894 16.1972 1.79658 1.8125 -0.785941 -2.65291
1146 3 5.3471 16.1632 3.46629 -0.611104 -1.85503 -0.498371
1149 3 7.01714 14.3981 3.37517 -2.1267 3.56022 1.72507
252 3 8.72633 14.3519 1.56243 0.891803 2.50217 -0.535873
1150 3 8.74128 16.2098 3.44983 1.31092 -3.75116 2.83224
255 1 10.7009 16.0844 1.59754 -0.811515 1.04741 1.89625
256 2 12.4092 14.3793 1.60621 -2.66929 -0.700268 -1.69915
1153 2 10.6271 14.2611 3.32657 1.41246 2.52125 3.08994
1154 1 12.4122 16.2017 3.39416 2.7191 1.63193 2.01387
316 2 12.3735 17.7023 1.48725 -1.54303 -0.397482 -0.192955
259 2 14.2352 16.1857 1.61231 -2.89192 -1.98213 0.958911
260 1 16.0687 14.2344 1.57332 -1.42991 -0.619222 1.73826
1157 1 14.3863 14.3414 3.47304 1.6247 -4.31634 2.11708
1158 2 16.0293 16.1376 3.37533 -1.20318 1.33949 -0.370751
263 1 17.769 16.1274 1.74089 -0.726695 1.02096 3.52453
1161 2 17.7686 14.3764 3.31489 -4.84463 -2.31456 2.72962
264 1 19.6468 14.5255 1.51386 -2.61895 1.49134 -3.41366
267 2 21.4979 16.1503 1.58256 -4.07342 -0.453782 1.13345
1162 3 19.6885 16.0916 3.38453 -3.19618 2.00686 1.54611
1165 2 21.5191 14.4221 3.65384 -0.55065 2.22654 -3.51824
1225 1 21.5891 17.8152 3.53595 1.08058 -0.577374 -2.24846
1170 1 26.7036 16.0604 3.30953 -0.281928 -0.417919 -1.36556
268 3 23.2192 14.3045 1.66897 -0.0163485 0.150718 3.71789
271 3 25.0327 16.1376 1.52782 -1.7004 -0.979821 -0.37285
1166 2 23.1706 16.192 3.51483 0.585372 -2.01475 -0.508249
1169 1 25.049 14.334 3.32998 -0.506916 -0.806341 0.402141
304 2 1.77965 18.0105 1.61529 1.05308 -0.299502 6.08387
1205 1 3.4217 17.9858 3.40338 4.04394 0.112543 -0.252125
307 1 3.53372 19.8635 1.57732 2.32369 1.35394 5.35045
364 2 1.70858 21.5259 1.54031 2.0446 -0.448681 2.00634
1202 3 1.62688 19.8366 3.41679 -2.90126 5.1579 0.23921
1265 1 3.58178 21.4994 3.41483 -1.66464 -0.256434 -3.07365
303 1 0.0184788 19.7969 1.44824 -1.98132 4.18974 1.91777
1201 3 0.0221293 18.0056 3.37273 2.58465 -2.6075 -2.29535
1209 3 7.02891 18.0058 3.41528 -0.187372 -2.89974 -5.46451
308 3 5.25963 18.1109 1.68891 4.89519 1.32567 1.13731
311 3 7.04336 19.7286 1.51988 3.43069 -1.19248 -0.866103
368 3 5.31785 21.5348 1.50402 -0.49883 -1.19144 -1.05112
1206 2 5.16457 19.8116 3.37527 2.33539 3.1384 1.76668
1269 3 7.12561 21.5727 3.44213 -0.0474583 -2.32357 -3.47852
1210 3 8.83508 19.6902 3.34276 0.0956066 -1.16429 1.19713
312 3 8.78069 17.9078 1.53415 -3.94128 -3.93877 0.916644
372 3 8.9903 21.4768 1.58387 -3.12056 -2.52011 1.51383
1213 2 10.4958 17.9433 3.46711 3.9824 1.45761 1.48175
315 3 10.6584 19.6664 1.67231 0.62195 1.16529 0.739962
376 2 12.3204 21.4892 1.69509 0.582928 2.83113 1.14141
1214 1 12.3702 19.4877 3.43792 1.7034 -0.392057 2.47487
1273 3 10.6857 21.3445 3.48285 3.20865 0.166248 0.39374
1217 1 14.1071 17.9709 3.47124 6.64781 0.921119 -0.538153
320 2 15.9196 17.9638 1.6184 -2.80326 -0.952512 -5.77602
319 1 14.2029 19.7635 1.70714 0.00538269 3.04765 1.08882
380 1 15.9869 21.564 1.66927 -0.075821 -0.474164 1.29945
1218 2 15.9775 19.7834 3.26555 -3.64307 -2.23453 -0.869255
1277 2 14.2536 21.4498 3.68168 2.63933 -4.9437 2.61998
1221 1 17.7336 17.9368 3.43601 -1.6965 -0.183475 -1.46622
1281 2 17.74 21.3464 3.48445 0.148173 2.99678 2.40056
323 1 17.8802 19.6348 1.59038 4.83961 0.79403 -3.85446
324 2 19.6171 17.9738 1.89169 -5.28217 -3.01461 -0.0869915
327 3 21.3598 19.6808 1.7164 0.669426 -1.54181 1.83557
384 1 19.5463 21.3443 1.58755 0.771103 1.1467 2.90037
1222 2 19.6609 19.6116 3.45754 4.50985 1.74203 0.591717
1285 3 21.4453 21.4693 3.45123 0.6356 2.03208 4.23009
1229 3 25.0311 17.9005 3.34984 -1.76445 3.22361 -1.40475
328 3 23.2063 17.9576 1.70095 -1.7104 3.35052 2.18156
331 3 25.0539 19.6802 1.80433 0.647728 1.49515 -3.93087
388 3 23.338 21.4246 1.72731 -0.59629 2.55012 3.56151
1226 3 23.3733 19.6611 3.53713 -5.78105 3.26963 2.18527
1289 2 25.1096 21.5639 3.52235 -0.952691 -0.704518 2.59169
332 3 26.7235 17.8553 1.52877 -0.0148644 2.0439 0.701763
367 2 3.43676 23.2242 1.72919 -2.3879 -2.167 -2.04105
424 2 1.69705 24.9346 1.58271 1.53184 2.67467 1.60674
1262 1 1.62352 23.1737 3.52859 1.60339 -2.0186 -1.02954
1325 1 3.37491 25.0564 3.30965 -1.345 2.93139 1.02767
371 3 7.06777 23.3425 1.59102 0.416072 1.65777 1.15871
428 3 5.22802 25.0586 1.5255 3.71424 -0.521754 3.78456
1266 3 5.26102 23.1873 3.40562 -1.74688 6.67778 3.71353
1329 3 7.13351 25.0952 3.37993 3.46858 -0.648709 2.14729
432 3 8.83427 24.8664 1.68256 3.33963 -0.753917 1.60347
1270 3 8.99293 23.2862 3.48429 -2.08565 0.675094 1.88568
375 3 10.6661 23.1953 1.65564 0.0206254 -3.83656 2.78004
436 2 12.5574 25.1266 1.65041 -2.0168 4.35248 -0.340814
1274 1 12.4203 23.2508 3.47676 -0.104264 -0.729797 -0.765277
1333 3 10.6804 24.9893 3.41025 1.42159 2.82987 -5.82735
435 1 10.7221 26.7012 1.67411 -2.14515 1.80932 -0.795069
379 2 14.1711 23.1509 1.79437 1.10433 1.1209 0.112574
440 3 16.0455 25.0865 1.66905 -1.0546 -0.375214 3.9911
1278 1 16.1258 23.2866 3.60722 1.74142 -0.592449 0.584206
1337 1 14.2591 24.9676 3.54495 0.493945 -0.866523 2.46334
383 2 17.8269 23.1213 1.7491 6.85896 -1.14927 -1.84046
1341 3 17.7979 25.0418 3.42681 -1.36608 0.567192 3.29007
387 2 21.2175 23.1797 1.70587 0.651002 1.07381 0.164411
444 3 19.555 25.123 1.77712 0.026304 0.113602 -2.18221
1282 3 19.5504 23.0926 3.61426 2.5529 -1.5181 0.078228
1345 1 21.4159 25.0384 3.39797 -1.41655 2.30352 1.37319
382 2 19.5084 23.1275 0.0396715 -1.34752 2.04376 -0.92289
391 2 25.0191 23.2595 1.67389 -4.08289 -3.20981 0.671601
448 2 23.1486 25.098 1.57298 0.99486 2.36616 2.9491
1286 3 23.172 23.2311 3.32984 0.684097 -3.26092 2.59903
1349 1 24.9284 24.9259 3.38329 2.89731 -0.928083 -1.7893
449 1 25.15 24.9437 0.00761568 -0.97923 2.8539 -0.950205
1861 3 -0.014167 3.55133 6.90608 -3.04952 -0.678508 0.830445
907 2 3.45078 1.82431 5.22557 -2.42665 -0.374402 1.11795
964 2 1.76571 3.66031 5.09295 -2.27832 1.04388 -2.69156
1802 1 1.72435 1.90377 6.8546 1.11994 0.891539 -1.68316
1865 3 3.36654 3.57827 7.17354 -1.94812 3.36263 2.6785
1804 3 1.73235 0.236468 8.7773 -0.977158 3.56298 0.36826
1864 3 1.74727 3.62267 8.89319 1.09054 0.0623445 1.12753
904 1 1.69628 0.169605 5.24824 1.32482 -0.39934 0.999875
1805 2 3.59541 0.0955166 7.04595 0.764403 -2.23933 1.82746
1803 3 0.0222313 1.8592 8.68816 1.91084 1.75203 2.3504
1807 3 3.53188 1.79709 8.86466 -0.0751344 0.716993 -3.43214
1808 1 5.43204 0.0244864 8.83349 3.55872 3.21297 -0.171156
911 2 6.91892 1.91008 5.28605 -0.67687 -0.248525 -0.8335
968 2 5.24313 3.78992 5.18302 1.54387 2.64332 -1.31571
1806 1 5.27005 1.82452 7.07517 0.219586 1.37749 -4.4261
1869 1 7.03212 3.73667 6.89362 0.888129 -3.2996 -2.95489
1868 3 5.24222 3.70494 8.78554 1.65417 0.38271 -1.36857
1810 1 8.82656 1.90165 7.07995 2.00001 3.24598 1.22746
1811 2 7.08134 1.82622 8.70184 -4.58963 1.49992 0.124171
908 1 5.34805 0.1921 5.24805 0.784478 -2.07173 2.33632
912 1 8.79476 0.11511 5.30424 0.404586 -1.15347 -1.23849
972 2 9.05465 3.7733 5.22178 5.23709 0.111896 0.804209
915 1 10.6636 1.92202 5.18524 -1.84076 0.899283 2.92188
976 2 12.3424 3.54538 5.24279 1.69548 1.94921 0.578631
1814 1 12.3398 1.88952 7.01274 0.0435695 -1.17077 -1.77859
1873 2 10.4787 3.76807 7.07084 -3.7884 1.44116 -0.508798
1815 1 10.6342 1.88532 8.71706 0.268631 -3.41266 3.91286
1816 2 12.3743 0.140712 8.83014 0.484587 3.4076 -0.0774343
916 2 12.3617 0.121687 5.24935 0.302826 -1.26424 -0.856164
1813 2 10.6171 0.142183 6.92702 -2.65503 -3.77765 1.10374
1872 1 8.90458 3.62934 8.82516 -1.74159 0.0720404 -4.04209
920 3 16.0305 -0.00795719 5.22986 -0.105794 -2.13162 3.44742
919 3 14.1837 1.97756 5.22049 1.7788 1.40312 3.03536
980 3 16.0233 3.65445 5.1448 2.04895 -0.348007 4.06154
1818 3 15.9754 1.93918 7.03389 -1.50411 0.0795699 -1.01556
1877 3 14.1445 3.65111 6.93526 0.922373 -1.28232 1.89392
1819 2 14.1505 2.02146 8.81432 0.48324 -1.1066 -1.35602
1820 3 16.0383 0.242224 8.76161 -0.460575 1.42509 -2.3221
1881 3 17.7968 3.57939 7.01567 -0.937369 -1.08086 1.29206
1817 3 14.0662 0.194094 7.02895 -1.34761 2.01526 -0.920102
1823 3 17.8539 1.91737 8.77897 2.20988 3.55507 -0.809791
923 3 17.8802 1.78263 5.19155 -0.260962 1.00719 -1.20179
1821 3 17.8871 0.0260598 6.9549 -1.64259 -0.759535 -0.6189
927 3 21.3481 1.86213 5.16459 4.97182 0.153742 -2.488
984 3 19.496 3.6901 5.17634 0.282908 -3.75501 -4.07698
1822 3 19.6655 1.85869 6.99987 3.25402 1.56826 0.368167
1885 3 21.3861 3.78475 7.05155 -1.87565 -2.19218 1.80612
1825 3 21.3651 -0.0276849 6.98079 -0.387396 -3.21438 0.121288
1824 3 19.6512 0.13543 8.80044 0.530812 1.02398 2.96778
1827 3 21.3909 1.95196 8.79569 -3.23059 -1.39811 2.87801
1884 1 19.5571 3.69284 8.82699 -2.00656 -2.59151 0.867705
1830 3 26.6989 1.96446 6.89486 3.54649 0.53977 -4.23605
931 3 24.913 1.9768 5.28247 -0.588096 -1.50397 -2.87283
988 3 23.0783 3.72589 5.27971 -2.20497 1.01234 -0.149629
1826 3 23.0676 1.79648 6.98441 1.01093 -1.02479 1.61703
1889 3 24.9636 3.6324 7.10954 0.795999 0.714893 -1.85849
928 3 23.2708 0.112561 5.21367 -1.26978 -0.720899 3.11498
1829 2 25.0111 0.0146164 7.11152 1.53301 2.3917 4.06274
1888 3 23.1459 3.55793 8.84829 -1.26555 0.777214 -2.72748
1831 1 24.9453 1.87233 8.72561 0.310991 3.00721 -1.11966
1828 2 23.2207 0.0178499 8.78881 -1.76061 -1.44766 -3.48181
932 1 26.6721 -0.00305562 5.25164 -3.90586 -0.570797 -3.29413
1832 1 26.7402 0.160269 8.79235 -2.61092 -2.92725 0.432405
967 1 3.39834 5.4788 5.15038 0.744854 0.874291 0.30767
1024 2 1.67366 7.18613 5.11268 -0.959936 0.895606 -1.36782
1862 3 1.69885 5.38647 7.07007 -2.81303 0.0936727 1.49852
1925 3 3.51469 7.22567 6.95625 -0.929209 -0.130826 -0.429868
1924 3 1.59294 7.23 8.65113 2.82741 -1.17447 -1.86074
1867 2 3.46555 5.52195 8.78734 -1.73443 -2.39804 -2.75191
971 3 7.14925 5.62846 5.25506 -1.58992 0.172771 2.69728
1028 3 5.26725 7.30711 5.20661 -3.56823 -1.50081 -4.91703
1866 3 5.31167 5.4635 6.95572 1.98584 -1.1227 -1.96081
1929 3 7.02753 7.34313 7.09456 2.04145 2.22642 -1.11555
1928 3 5.20867 7.24994 8.77805 0.72285 2.21363 -0.693663
1871 2 6.98502 5.40727 8.85311 0.95981 -2.6094 1.1054
1932 3 8.78125 7.41981 8.80868 0.463919 -0.910748 0.761305
1870 1 8.81053 5.34559 7.14026 2.07476 -0.432319 -4.18996
1032 2 9.00773 7.22178 5.33725 -1.17945 -2.11353 -3.40058
975 1 10.7029 5.53826 5.27837 2.17491 0.0273186 1.63253
1036 2 12.5324 7.3068 5.08935 0.114072 2.006 0.137011
1874 1 12.4334 5.42286 6.94129 -1.43001 1.48903 1.21554
1933 2 10.5974 7.26467 7.14186 1.84786 2.9967 1.98704
1936 1 12.4941 7.29398 8.84365 -1.47329 2.90644 -4.32155
1875 2 10.6092 5.55916 8.89437 -1.52659 0.262461 -2.54763
979 3 14.1151 5.48299 5.08522 1.58787 -3.37469 -1.80504
1040 3 16.0411 7.2541 5.40383 -1.34238 -2.19519 0.0536167
1878 3 15.9871 5.46024 7.10568 2.44876 -3.46211 1.81916
1937 2 14.1291 7.17405 6.99106 0.166994 4.60501 1.43641
1940 1 15.9242 7.1841 8.82186 0.855268 -2.30021 -2.26992
1938 2 15.9526 8.86611 7.04025 1.43595 -2.08452 0.339303
1879 2 14.155 5.3443 8.89928 3.70328 2.67394 -1.43694
1883 2 17.836 5.31734 8.88418 0.396212 -0.602873 1.09609
983 3 17.8995 5.52575 5.29151 0.918689 -1.82984 1.14423
1941 1 17.9241 7.23739 7.11627 -2.02447 0.874053 2.95408
987 3 21.3502 5.40924 5.22573 1.19105 2.77483 1.54107
1044 2 19.6497 7.30428 5.34915 5.00221 -1.75503 -2.61649
1882 3 19.544 5.42941 7.02415 1.74111 2.00039 2.53093
1945 2 21.3508 7.21244 6.99414 3.28323 -2.47264 2.95124
1944 1 19.6307 7.28508 8.71832 0.416496 3.19665 2.22754
1887 2 21.2489 5.43725 8.83478 -0.841922 -1.07716 3.88011
1947 2 21.5015 8.81726 8.77697 1.49808 -0.0797719 2.02348
991 3 24.9557 5.43038 5.20742 -0.0815789 -2.60803 -1.30555
1048 3 23.1157 7.21819 5.18692 2.94164 -2.35838 -2.49363
1886 3 23.1539 5.3888 7.0541 -1.06942 0.857907 -3.17945
1949 3 24.9948 7.24259 7.08527 -2.65817 0.158464 -1.56452
1890 3 26.7234 5.32039 6.99876 3.23836 0.011156 1.10255
1891 3 24.9543 5.4016 8.77398 -0.051511 -1.24175 0.580055
1948 3 23.1711 7.09424 8.80328 1.87266 1.81348 -3.42399
1051 3 25.0016 8.90097 5.24087 1.84952 0.0965462 0.0797657
1927 3 3.39273 9.01349 8.73922 -3.54151 -2.16526 -0.740127
1027 3 3.44835 8.98412 5.24979 -1.97392 0.347887 0.632388
1922 1 1.61907 9.11419 7.12446 -0.0780485 2.1575 -0.198712
1084 2 1.60949 10.8027 5.1389 3.43892 2.37192 0.643297
1087 3 3.4559 12.7347 5.10461 1.50372 1.45625 0.600579
1982 1 1.61226 12.5355 7.03333 -0.65859 -3.24095 -0.829292
1985 3 3.42602 10.8858 6.76821 -0.971245 4.36264 1.49111
1987 2 3.55297 12.677 8.59599 3.11566 -4.61034 -2.05988
1984 2 1.787 10.9001 8.8252 1.63761 4.37644 -5.54634
1931 3 7.07437 9.21773 8.63537 0.294585 -2.4489 -2.8111
1926 3 5.22044 9.04502 6.8838 -2.19104 0.540377 0.169159
1031 3 7.02511 9.05284 5.2353 -3.02375 -0.852154 -2.23191
1088 3 5.23406 10.9555 5.05933 2.02566 -0.188377 -2.94244
1091 3 7.09508 12.6622 5.24865 2.04988 -2.96401 0.739025
1986 1 5.2073 12.6546 7.05395 0.29369 -0.625042 -0.555013
1989 3 6.89872 10.9126 6.93559 -0.163557 -0.249486 1.69233
1991 2 6.97392 12.7386 8.61556 -2.09971 3.9391 0.616812
1988 3 5.25797 10.8269 8.72029 -0.0409242 1.44033 0.0823957
1092 3 8.8056 10.7987 5.19233 4.33302 0.00870116 -4.81591
1990 3 8.79415 12.5885 6.98663 -1.43612 1.58981 2.92437
1992 3 8.88345 10.909 8.67405 -0.318177 1.6533 1.60446
1930 3 8.6824 9.07728 6.81183 -2.33995 -4.53823 -1.44128
1935 2 10.6478 9.10804 8.83253 -1.14509 1.31483 4.634
1934 1 12.515 8.98471 7.09866 -0.973695 -1.93996 -3.31613
1035 1 10.716 9.08331 5.32132 -1.14948 -1.1176 3.81553
1095 3 10.539 12.5556 5.27803 1.20238 0.691713 -4.55951
1096 2 12.326 10.6892 5.28498 -3.20912 4.65683 1.18395
1993 1 10.7176 10.7565 7.05635 -0.564132 2.15279 -0.183023
1994 1 12.3811 12.6262 6.98024 1.99741 -3.47119 -3.07337
1996 2 12.5826 10.6799 8.72465 2.59975 -0.388385 -2.04072
1995 2 10.7104 12.6471 8.81684 -1.43526 0.329218 -0.809046
1039 1 14.2587 9.05417 5.17825 1.07483 3.73479 -1.50234
1939 1 14.2883 9.0153 8.86732 1.881 -3.8637 2.15759
1099 1 14.1767 12.6791 5.2656 0.895775 1.20565 1.77518
1100 1 16.0126 10.9317 5.34835 1.67512 3.8401 -4.89562
1997 2 14.1668 10.9186 7.0614 -2.45728 1.34625 1.62824
1998 2 16.235 12.5418 7.09102 0.080538 2.38379 -0.865586
2000 1 16.0562 10.8146 8.77397 -0.40376 4.09498 3.02166
1999 2 14.2658 12.6612 8.77434 1.71395 -2.09613 4.53642
1043 2 17.7147 9.01969 5.23599 3.01793 -1.87282 -1.35231
1943 2 17.6364 9.05174 8.77456 -0.0603016 -1.51219 -0.327022
2001 1 17.8005 10.6896 7.03952 -1.02199 -1.38119 1.41599
1103 1 17.8196 12.4839 5.13433 -1.32995 -0.326724 3.68943
1942 1 19.5585 9.01122 7.00348 1.97093 -0.848501 2.15533
2003 1 17.8741 12.6063 8.71726 -1.31234 -0.0837654 0.537116
1047 1 21.3305 9.02216 5.3099 -0.264574 -1.22098 -1.70455
1104 2 19.6133 10.6056 5.24599 -0.0792835 -1.6631 -2.57187
1107 1 21.386 12.485 5.18653 0.468952 0.192973 1.52724
2002 2 19.5778 12.5513 6.91718 -2.80667 -0.583593 -1.6673
2005 1 21.4692 10.8288 7.04692 1.33439 0.876559 -3.96386
2007 2 21.5021 12.6838 8.83639 3.17233 -1.03772 0.659875
2004 2 19.6862 10.7651 8.71422 -1.28055 1.44629 -0.894617
1946 1 23.1536 8.92817 7.09604 -1.50746 -0.11652 -0.968557
1951 2 25.0472 8.9238 8.87095 1.29391 -0.712692 -2.00143
1108 2 23.072 10.7047 5.35302 -0.164949 4.4688 0.937223
1111 1 25.0429 12.4167 5.31371 -1.51905 -0.599419 0.536369
2006 1 23.2401 12.4904 7.02626 -1.80146 -1.62578 3.76962
2009 2 25.0773 10.6356 7.21242 0.771942 0.853922 0.917777
2011 2 25.0494 12.5184 8.87109 -1.84625 1.89419 -0.712096
2008 1 23.2627 10.5928 8.84535 2.43179 -1.62774 -2.11805
1144 1 1.56921 14.4237 5.12156 -1.05371 -0.998413 -1.29887
1147 2 3.4849 16.1344 5.16203 -0.230852 0.701259 1.29677
2042 1 1.70816 16.3197 7.03771 -2.01623 -1.0865 1.93882
2045 2 3.37121 14.4995 6.86952 -0.393307 -0.112298 3.11708
2047 2 3.45167 16.2915 8.77567 -1.80036 2.60057 -2.61689
2044 1 1.74884 14.3819 8.78272 1.98344 -2.02675 -0.617511
1148 3 5.33244 14.4306 5.12204 -3.74934 -2.31502 -5.37281
1151 2 7.10261 16.0569 5.11446 -2.8555 -0.132304 -0.47272
2046 1 5.3849 16.3344 6.93125 1.14831 1.81861 0.494622
2049 2 7.03742 14.4462 6.96975 1.02178 4.14027 0.28227
2048 1 5.2105 14.5586 8.70313 -3.77833 3.09786 0.144416
2051 1 7.0634 16.0599 8.78504 1.05949 4.22063 -1.01553
2050 1 8.79432 16.1591 7.18824 1.92376 -2.65243 -0.181384
1152 1 8.78745 14.3493 5.24974 -0.286247 2.52863 -2.45059
2052 3 8.76167 14.3907 8.80849 -4.55364 -2.64147 3.48516
1155 1 10.6883 16.38 5.1012 -5.52158 4.45849 0.13757
1156 2 12.3649 14.3198 5.09905 -1.93068 4.71626 5.87348
2053 2 10.6163 14.5607 7.0597 -0.135545 1.22196 -3.00938
2054 1 12.3373 16.1567 6.99609 -4.02988 1.03999 -0.833345
2056 1 12.3998 14.3527 8.7483 -0.342622 0.34369 1.3725
2113 2 10.6679 17.8136 7.12242 -1.67962 -0.812041 -1.86103
1159 2 14.3371 16.0448 5.27493 -3.90085 1.6428 -0.455956
1160 1 16.1664 14.2676 5.24281 1.29454 -3.98818 -4.68344
2057 2 14.2678 14.3949 7.00406 -2.6472 5.06422 0.276253
2058 1 16.0035 16.1245 7.06624 0.891634 1.5891 -2.58868
2059 2 14.0739 16.174 8.8662 -2.71807 0.0156224 0.354407
2060 1 15.9741 14.4056 8.85149 1.73654 2.04379 0.18244
1163 1 17.7852 16.1231 5.10017 1.37886 1.60832 3.14725
2061 2 17.8182 14.4198 7.02295 -3.41069 -2.5605 -2.86209
2121 2 17.8226 17.8176 7.00208 -1.60962 0.0179708 0.106506
2063 3 17.9541 16.1288 8.72379 -0.644128 0.815274 4.69333
1164 2 19.6007 14.3973 5.15202 -0.98879 -0.180919 0.300668
1167 1 21.563 16.2312 5.24302 1.24713 -0.229237 -2.56191
2062 3 19.7093 16.1283 6.88871 -6.30825 2.18929 -1.89703
2065 1 21.541 14.2482 6.84779 1.652 3.28849 -0.538277
2064 1 19.6492 14.3223 8.70156 -1.10974 -4.77473 4.48579
2067 2 21.5019 16.061 8.69643 -5.05089 0.923498 -0.324155
1168 2 23.4102 14.367 5.12659 -1.27152 5.55442 -1.03278
1171 1 25.0296 16.174 5.15782 2.33024 -1.24232 -0.772563
2066 1 23.3584 16.0186 6.9709 3.44168 -0.805088 -2.3582
2069 2 25.0485 14.1865 6.97884 -2.15825 4.86538 0.554041
2068 1 23.2418 14.2878 8.76192 3.33531 3.41543 2.53387
2071 2 25.0988 16.0038 8.72294 2.15115 -1.66746 0.684545
2129 1 25.1936 17.8332 6.93012 3.43674 1.36339 1.1364
1172 2 26.6628 14.4195 5.23198 -0.180757 -2.2926 -0.334472
2132 2 26.6805 17.7965 8.72832 0.63079 -3.20622 0.670601
2161 2 0.0811813 21.6454 6.90563 0.516515 0.684027 -3.53272
2104 2 1.64492 18.1049 8.80169 2.66585 -0.21702 -1.49041
2105 1 3.42958 17.9852 6.93067 -0.0774802 -1.72022 -1.58536
1204 2 1.81391 17.9341 5.18571 2.57905 -0.50914 -5.10016
1207 2 3.48932 19.6746 5.19975 -0.334943 1.68381 -2.02485
1264 2 1.75665 21.6356 5.14563 -0.995358 0.77386 -2.25782
2102 1 1.63155 19.9142 6.91186 2.00466 0.356385 1.104
2165 1 3.50784 21.4889 6.96442 -2.8404 2.69677 -0.629282
2107 2 3.55264 19.6319 8.75242 3.71405 4.21414 2.37306
2164 1 1.62324 21.5178 8.88135 -3.07221 3.77581 0.646754
1208 1 5.35269 18.0239 5.1656 -0.914597 -3.9398 -1.41208
2109 2 7.08922 18.0681 7.03554 -2.11788 2.52392 1.62011
1211 3 7.00938 19.7152 5.2676 1.34713 2.38667 -3.90686
1268 3 5.32257 21.4792 5.20077 -1.8609 -0.0321839 -2.1209
2106 1 5.25476 19.723 7.00693 0.333701 -1.1632 0.674245
2169 2 7.08728 21.4297 7.07388 -3.41726 1.49581 -1.72291
2168 2 5.25251 21.4302 8.8368 2.15019 0.419722 3.91043
2112 2 8.87092 17.9926 8.77351 -0.874257 0.64475 -2.83565
1272 3 8.89693 21.5021 5.20356 1.60223 -2.07516 0.891678
1212 1 8.73502 17.8825 5.26869 1.19811 -0.775434 -2.26449
2110 1 8.91903 19.6388 7.07712 0.400664 -0.171963 5.0158
2172 1 8.95133 21.4209 8.80603 -1.97 -0.0216246 -0.758311
1216 2 12.4288 17.9844 5.32468 -2.71941 0.490913 -0.977209
2116 2 12.4016 17.9856 8.88086 0.0281884 -2.94744 0.178497
1215 2 10.6239 19.7581 5.26231 -0.191292 -2.45287 2.13008
1276 1 12.4264 21.3428 5.28786 -4.57722 1.61019 0.184903
2114 1 12.4066 19.6226 7.04311 -0.23051 -1.38627 -0.412396
2173 2 10.581 21.2789 7.07545 0.511321 -2.39296 1.86503
2115 1 10.6954 19.7397 8.89843 2.83075 0.363983 -1.37162
2117 1 14.1704 17.8519 7.03635 -2.15394 0.163429 -2.11197
1220 1 16.0452 17.8716 5.19429 -0.335557 1.41493 0.421554
1219 2 14.2543 19.652 5.30779 1.08386 -2.63496 -0.562846
1280 1 16.01 21.5538 5.31987 -1.89057 0.428654 0.289527
2118 2 16.0228 19.6368 6.95863 -5.58273 -0.453047 -0.883211
2177 1 14.2618 21.4197 7.01043 -3.03602 -1.22203 0.870208
2181 2 17.8124 21.4187 7.02948 2.56507 -1.89794 0.100965
1223 1 17.7507 19.7306 5.23241 0.289169 -1.22371 -2.0289
2180 1 16.1455 21.5018 8.84721 1.29516 3.80637 -0.645535
2120 1 16.0077 17.9901 8.71451 2.82604 -1.38394 -1.21828
2119 2 14.2618 19.7838 8.86644 0.475496 -0.387341 -3.81631
2125 3 21.3669 17.8814 7.13191 0.669297 3.0994 -2.31462
2123 3 17.8729 19.6453 8.85402 -2.74396 -3.40386 0.925182
1224 2 19.5812 17.883 5.13206 -2.43142 2.26415 -0.248797
1227 3 21.5464 19.6487 5.3363 -1.5134 -0.29691 4.18187
1284 3 19.7291 21.3979 5.28849 -0.286158 4.48587 -1.89192
2122 1 19.5386 19.5922 6.93055 -0.0705275 -2.52103 3.81278
2185 3 21.4365 21.422 7.03619 -2.31587 -2.32535 1.78517
2127 3 21.451 19.7004 8.78179 -0.427137 2.95725 -2.52251
2184 3 19.7176 21.4139 8.79206 -2.07248 0.0926247 2.58254
1228 2 23.203 17.8922 5.30344 -0.317345 -2.16729 0.694025
1231 3 25.0829 19.7038 5.26826 1.02746 -0.0249948 0.509297
1288 3 23.3301 21.5276 5.28919 -1.32741 2.01297 -1.07065
2126 2 23.148 19.5202 6.9224 1.7231 1.86852 -2.25301
2189 3 25.0747 21.3874 7.12937 -6.49364 -0.367542 1.73059
2188 3 23.2375 21.3302 8.78601 -1.67299 -1.28248 2.88953
2131 3 25.0308 19.528 8.86779 -1.46855 0.0857881 0.766689
2128 3 23.1913 17.8428 8.75047 -0.55465 -2.3617 1.18333
2192 3 26.7306 21.4445 8.89694 -2.46372 1.3868 -0.410778
1267 2 3.48506 23.2892 5.18794 0.380442 -2.15686 4.50285
1324 2 1.73252 24.9672 5.11102 1.77873 -0.745957 -1.303
2162 1 1.8124 23.2693 6.93533 -3.42621 -0.420032 -1.17785
2225 3 3.55454 25.0513 6.96713 -2.4143 -2.95513 -3.39172
2224 3 1.60673 25.1901 8.7721 1.99487 0.682154 0.799297
2167 2 3.5075 23.2825 8.64889 -2.15978 -1.12494 -0.418864
1323 3 -0.00652617 26.5876 5.08098 -1.26428 -0.394988 -0.687086
2221 3 0.00120772 25.033 6.9017 0.408025 -3.6725 -0.836556
1327 3 3.41863 26.7484 5.16308 5.11526 -0.70068 -0.0436237
1271 3 7.08224 23.345 5.12417 1.42659 -0.32979 0.728039
1328 3 5.36028 25.1224 5.22801 -0.876234 1.07494 0.909459
2166 3 5.37394 23.3253 6.93398 -3.98514 -7.09144 -1.17357
2229 2 7.10439 25.1018 6.96854 -5.4034 -0.529013 2.69861
2228 2 5.15147 25.2968 8.65803 0.46844 -5.12308 -0.0488589
2171 1 7.09519 23.2826 8.70526 0.721042 1.57215 -1.18729
2232 2 8.89559 24.9967 8.72324 2.72705 1.39438 1.7167
2170 3 8.8219 23.1839 7.05661 -0.396495 2.53668 1.09201
1331 1 7.16312 26.7158 5.12126 0.141464 -0.491189 2.17893
1332 3 8.98631 25.0484 5.22606 0.233322 -0.675381 -0.844899
1275 2 10.7806 23.18 5.36243 -4.35369 0.183722 4.57281
1336 2 12.5342 25.0275 5.26682 -5.77188 -1.25361 0.560983
2174 1 12.4712 23.234 7.00942 -0.494679 1.28501 -4.23596
2233 1 10.647 24.9681 7.13609 -2.64377 -0.783642 -0.956412