ITEM: TIMESTEP
19800
ITEM: NUMBER OF ATOMS
13500
ITEM: BOX BOUNDS pp pp pp
-8.1953083915699665e-02 5.3601953083913031e+01
-8.1953083915699665e-02 5.3601953083913031e+01
-8.1953083915699665e-02 5.3601953083913031e+01
ITEM: ATOMS id type x y z vx vy vz
7 1 3.50368 1.63097 1.78842 -0.141172 5.07187 -3.75294
64 2 1.76509 3.58841 1.66069 -3.17729 -2.49569 -2.42413
902 2 1.89757 1.78724 3.43408 -1.30514 -4.84863 0.847763
965 1 3.61749 3.59767 3.35482 0.103351 -3.21636 -1.78752
4 1 1.71458 -0.0573168 1.78802 -0.534294 -2.86099 -3.25261
3 1 -0.0172602 1.62198 1.68917 -0.937537 -2.32545 -0.897065
1 2 -0.033893 0.114934 -0.00455008 -2.5563 -4.48638 0.956719
5 2 3.33412 0.0254479 -0.0441144 1.5563 1.98703 3.55129
65 1 3.48135 3.59946 -0.0792605 -2.19115 0.680625 0.297534
11 1 6.97447 1.56116 1.66779 0.349335 0.75724 2.17098
68 2 5.463 3.62476 1.73268 -1.22007 1.28398 2.87432
906 2 5.36969 1.93005 3.38443 0.141859 -2.36962 -2.6087
969 1 7.13254 3.5041 3.3998 2.50654 1.64645 -4.05743
909 1 7.19063 -0.0699308 3.46055 -0.439844 -5.37648 -5.57527
69 3 7.09343 3.36189 -0.0547526 -1.38098 -3.81735 -0.42402
10 1 8.91599 1.66237 0.0442158 1.85205 -0.0665186 -2.06564
72 2 8.92898 3.51145 1.74142 -7.27881 -0.61911 -0.267829
910 1 8.93453 1.8018 3.21094 1.92064 2.82594 1.06071
15 1 10.8672 1.82099 1.7713 -5.46244 2.28721 0.411096
76 2 12.6601 3.40381 1.92793 0.813773 2.13712 -0.396858
914 2 12.5726 1.64162 3.57039 3.76149 -0.400323 1.46699
973 1 10.7528 3.59979 3.38161 -4.88352 1.61159 1.39073
73 1 10.6892 3.55828 0.0377591 0.286915 -5.1916 -2.13056
16 1 12.5783 0.0804813 1.72501 0.0518601 2.49006 -4.56273
13 1 10.6721 0.0210813 0.0545394 -4.17748 1.34753 2.80576
12 2 8.96795 -0.0458599 1.76325 -2.40219 1.92013 4.87356
14 2 12.6415 1.66101 -0.0745922 3.41426 1.64246 0.933237
19 1 14.4336 1.57238 1.90236 1.46271 -2.61096 -2.06668
80 2 16.0565 3.56423 1.73285 2.83671 0.841762 -1.06346
918 1 16.0172 1.63434 3.641 4.22049 -0.77673 0.649934
977 2 14.6253 3.57588 3.59083 3.99075 0.971374 -2.61855
981 2 17.6689 3.4497 3.5931 2.98033 -3.95479 -3.68738
23 1 17.5812 1.89465 1.68599 -0.44516 4.45802 2.50154
77 2 14.347 3.5636 -0.0267785 1.62005 2.56887 3.62021
21 2 17.7127 -0.0320928 -0.0286189 2.02961 -1.66581 3.9115
27 3 21.2334 1.78282 1.84874 1.81269 4.7653 -1.51392
84 1 19.4118 3.51162 1.52202 -4.13065 -3.32303 5.06286
922 2 19.5731 1.74691 3.65886 4.04657 -2.76414 1.59212
985 2 21.1812 3.62261 3.5679 -1.4816 4.84657 1.96504
24 1 19.403 0.250535 1.5831 1.09004 1.72536 -3.93531
22 2 19.5132 1.80844 -0.018077 -2.58319 2.21683 5.21782
31 1 24.9331 1.77195 1.73132 -4.59006 0.163556 -2.6902
88 1 22.9859 3.61679 1.68899 -3.75315 -1.94285 -1.0977
926 3 23.1423 1.79264 3.54613 -3.2742 1.06651 1.63209
989 3 24.9077 3.48187 3.63638 0.720659 2.21185 2.91503
92 1 26.744 3.47774 1.55024 1.45033 0.682864 -1.47209
26 1 23.0118 1.73869 -0.0303665 1.04449 -5.02032 -1.68155
28 2 23.1553 -0.0489099 1.67542 0.891427 -1.91009 -4.04209
929 1 24.9243 -0.0569013 3.31188 4.34672 -0.72397 -3.33922
89 2 25.0352 3.57303 0.0167833 3.03436 3.64865 1.44741
67 1 3.41645 5.27559 1.54931 2.69077 -2.40636 -3.4238
124 1 1.56823 7.1341 1.57318 -0.303253 -2.31874 2.6146
962 1 1.7137 5.15707 3.21513 -0.528873 2.29295 -1.1523
1025 2 3.47108 7.11101 3.46754 0.941442 0.747767 4.66577
127 2 3.5065 8.72199 1.67917 -0.139412 2.80219 -1.46768
1021 2 -0.0887629 6.94368 3.51757 -5.40277 -1.36714 1.27825
125 2 3.40302 7.11679 -0.0442976 6.59607 0.425641 -1.31924
62 2 1.59983 5.22524 -0.0744154 -3.7784 4.84603 3.28847
71 1 7.14784 5.25934 1.66809 2.22861 2.00988 -0.0449326
128 1 5.35272 7.07372 1.6307 -1.00515 3.23881 -1.88668
966 3 5.30922 5.2964 3.41759 1.05494 1.84001 -3.23141
1029 2 7.04087 7.06815 3.36659 0.43861 -3.19417 1.17012
1026 1 5.29265 8.82621 3.60238 0.40474 0.704434 -0.398137
1030 1 8.74088 8.70946 3.48125 -5.79669 -3.71295 2.12294
66 2 5.25173 5.16636 -0.0421681 -3.34509 -1.92198 3.02001
130 1 8.89972 8.8119 -0.0365218 3.57288 2.08092 0.432606
132 2 8.91403 6.9273 1.73679 1.89613 6.40222 0.961891
970 1 8.96146 5.42836 3.64127 -3.49425 -3.74156 -1.98463
75 3 10.5836 5.31675 1.78706 7.76472 5.38159 -1.99766
136 2 12.4002 6.95283 1.75101 -0.151133 -1.70069 -2.67087
974 1 12.5282 5.31397 3.46575 2.29961 -3.32527 0.316148
1033 1 10.5681 7.14961 3.52779 -3.18702 -1.08448 0.371814
1034 1 12.6531 8.86136 3.38912 0.0637146 0.305638 -1.85302
135 2 10.7178 8.78308 1.76146 5.78969 -6.66144 0.702397
79 1 14.203 5.20376 1.68101 1.83757 3.1451 -3.00765
140 1 15.9382 7.1776 1.70625 -2.76914 -1.44766 2.18891
978 1 16.1279 5.51755 3.379 -0.373461 -0.360127 1.58793
1037 2 14.3515 7.14636 3.46815 2.25615 3.75915 -1.48092
78 3 16.0662 5.3376 -0.0493187 -1.44617 5.97799 -1.43532
141 3 17.8012 7.1102 0.00952674 -1.04017 -2.6894 -2.89441
83 2 17.7833 5.39956 1.76235 -3.30134 1.69982 -0.804356
137 2 14.1477 7.1233 -0.0757962 -0.996572 -6.96835 1.32681
1041 1 17.8248 7.15421 3.5785 -3.18938 3.62414 -2.32482
87 1 21.2604 5.35089 1.86867 -0.008576 -1.1577 7.07064
144 2 19.4753 7.23419 1.73223 -2.19977 -0.0348582 -2.42461
982 1 19.4688 5.33817 3.44112 -2.80733 -0.854166 1.09239
1045 3 21.3685 7.14098 3.59781 1.11026 3.4934 -0.645225
147 2 21.2214 8.81514 1.80747 -1.13007 1.81866 -1.25206
82 3 19.4845 5.24024 -0.0732187 -0.208221 -1.964 2.13722
91 3 24.7815 5.19905 1.86819 0.299153 -1.67303 -0.0288091
148 3 23.1082 7.02079 1.66978 4.65382 -2.75878 2.70891
986 2 23.0466 5.35119 3.48218 -0.541736 5.60603 -5.07171
1049 3 24.8768 7.00287 3.69349 2.63108 -5.10446 4.8205
151 3 24.8367 8.79852 1.83392 2.26198 2.12493 0.38504
152 2 26.6952 6.97186 1.80239 3.2122 3.02008 2.51383
1046 3 23.1527 8.72795 3.54942 -2.23321 0.483592 1.90913
86 2 23.0195 5.25626 -0.0214916 -3.88228 3.84192 -0.234721
150 3 26.4098 8.81998 0.030392 0.918605 1.5807 2.84346
1022 3 1.76377 8.93773 3.41943 -3.70917 -2.86298 2.49232
184 1 1.65529 10.6273 1.57027 0.166525 -0.966522 3.65266
187 2 3.34109 12.4831 1.85473 -3.73977 -2.63024 -0.380012
1082 3 1.69701 12.4729 3.36638 -3.49605 -0.226193 -4.93451
1085 3 3.44893 10.5422 3.54104 5.78767 4.13763 3.14959
185 2 3.52439 10.6303 0.0882036 5.39032 1.41646 -4.81272
1081 3 -0.0162863 10.5906 3.42679 -3.43282 -0.461275 -0.477286
131 2 6.97606 8.91695 1.75968 5.75509 1.37596 -1.60017
188 1 5.15635 10.6159 1.77366 4.0294 1.41371 0.328913
191 2 7.25745 12.2039 1.75156 7.06712 -2.12509 4.09924
1086 3 5.28004 12.3507 3.53144 1.55817 -0.746784 -0.892289
1089 1 7.11364 10.5035 3.42244 2.04035 0.169639 2.23131
186 1 5.10581 12.1557 0.0553717 -3.01048 -0.431996 2.39599
189 2 7.08761 10.6627 0.0390884 -0.384164 -0.00919392 3.57777
192 1 8.96101 10.4926 1.85103 5.27677 2.94542 3.72821
1090 2 8.92279 12.4515 3.48012 1.64345 -2.36848 -3.43647
190 1 8.92618 12.3654 0.0454755 -1.98732 -6.82838 -1.39567
195 2 10.7245 12.507 1.68454 -2.09287 -3.41751 3.50845
196 1 12.3912 10.5346 1.67106 0.0305761 1.64705 2.44705
1093 2 10.5642 10.5377 3.45023 0.380947 0.688664 2.06723
1094 2 12.561 12.3755 3.56772 0.2132 -0.87353 1.70366
1038 2 16.0258 8.97475 3.6144 -6.84795 2.5539 5.6771
139 2 14.1907 8.9995 1.54627 6.07374 1.187 0.103549
199 1 14.145 12.203 1.72243 2.18595 1.89247 -1.35371
200 1 16.0466 10.6566 1.74122 -2.98756 -3.58225 1.24506
1097 1 14.3688 10.5704 3.46938 -0.418766 -1.78692 -3.09985
1098 2 15.9415 12.3786 3.45162 -4.23172 -3.22004 -2.18891
1101 2 17.7834 10.6615 3.53263 0.540047 1.60315 0.648716
201 2 17.7154 10.6392 -0.0768591 2.26478 2.33716 0.692248
143 1 17.7828 8.96747 1.69042 2.39912 -1.44248 -2.643
198 3 16.09 12.4247 0.0226612 -0.835237 1.51848 -0.973395
203 3 17.9446 12.3498 1.76139 5.89561 4.29388 0.248484
142 3 19.5664 8.92942 -0.025967 0.752539 -2.32674 -0.991475
1042 3 19.6248 8.94497 3.75437 1.67343 -1.46554 -0.272725
204 3 19.6658 10.7851 1.9602 -1.18736 1.21035 3.141
207 3 21.309 12.4265 1.78432 -1.53608 -1.3041 -0.925819
1102 3 19.541 12.6994 3.50961 -2.6297 -3.94679 -0.919758
1105 1 21.466 10.5806 3.51249 -3.91735 1.72446 -0.496545
202 3 19.4056 12.3681 0.0811426 5.44272 4.89613 -3.01511
205 3 21.3962 10.6863 -0.0563987 -1.53452 -3.10851 3.51377
1050 1 26.6858 8.99452 3.65669 -0.891994 -1.60147 -5.09598
208 3 23.0897 10.6403 1.77605 4.12354 0.880637 -2.66934
211 1 24.9808 12.4869 1.96214 -1.30724 1.44962 -2.63331
1106 2 23.1186 12.3373 3.41664 -0.790258 -0.0800166 4.12939
1109 2 24.7824 10.6266 3.79381 -4.26475 1.58121 -2.697
1110 3 26.6884 12.442 3.61417 4.38778 -1.35174 -0.515496
212 2 26.6926 10.5575 1.82334 -0.778162 2.40461 -5.71581
210 2 26.6584 12.4519 -0.0288416 -0.0581291 1.58371 1.0803
244 1 1.75923 14.1673 1.57772 0.422536 -1.82893 0.865172
247 3 3.56133 16.1119 1.69411 3.07228 3.08623 -1.13271
1142 3 1.71294 15.9953 3.50093 -0.581011 -0.690472 -0.743861
1145 2 3.30333 14.3732 3.51011 -5.05531 3.1207 -0.999337
242 2 1.69998 16.1055 -0.0207117 1.32781 -1.99571 2.57718
245 2 3.63073 13.9647 0.0203507 3.3052 -6.14295 2.70461
1205 2 3.57763 17.6778 3.42931 3.71174 -1.28672 -5.3665
248 3 5.41496 14.1557 1.79801 -0.213474 0.471387 -5.50962
251 2 7.07575 16.0024 1.62307 -0.345776 -1.15104 3.64791
1146 3 5.33207 15.8725 3.55724 -1.26988 2.36816 0.328107
1149 3 7.03066 14.1296 3.64657 0.324847 1.02236 2.69764
249 1 6.9049 14.0232 0.03976 -7.17608 -3.2939 -1.30804
312 1 8.85399 17.688 1.57185 0.298568 0.766654 2.02193
246 3 5.27698 16.0457 -0.0272017 -0.325716 -1.75159 1.67291
1209 1 6.97568 17.7877 3.54047 3.09144 -0.187811 -1.46238
252 1 8.84546 14.1323 1.55401 -2.21951 3.55189 -1.26909
308 1 5.31387 17.7798 1.78593 -0.970383 -4.19176 0.302008
1150 3 8.88772 15.8409 3.64379 2.8422 1.55787 -2.35263
255 2 10.5296 16.0295 1.71743 1.66211 -2.43639 2.03961
256 3 12.4371 14.2253 1.69951 1.28909 0.380336 3.12803
1153 1 10.6011 14.1971 3.49023 0.468054 0.916607 -7.35776
1154 2 12.1142 15.938 3.51635 -1.54004 2.11964 -5.29572
1213 1 10.4627 17.7114 3.50731 0.474221 -1.60319 2.39324
316 1 12.2095 17.8121 1.61761 1.59836 5.03153 -0.819337
254 3 12.5291 16.0948 0.0317889 -0.870235 0.866535 -0.367759
259 1 14.1742 16.2075 1.79275 -2.73403 2.91058 1.13182
260 2 15.9132 14.2297 1.79442 -7.06364 -0.639502 1.03571
1157 3 14.3038 14.3558 3.52504 -0.593701 -1.75331 1.84884
1158 2 16.0372 16.2089 3.53769 0.79439 -0.832598 -3.70866
263 1 17.6741 16.1329 1.68771 6.06783 -2.21668 -2.41062
257 3 14.3046 14.1933 0.0433054 -0.147168 -1.29776 -2.81065
1161 1 17.7004 14.4709 3.36014 -0.0296386 1.88829 0.626803
264 2 19.7052 14.3946 1.68967 2.81339 -3.11809 3.38151
267 1 21.4246 16.1179 1.78497 -4.88838 -3.80446 1.43287
1162 3 19.5106 16.2472 3.49177 0.890353 -4.34986 2.85366
1165 2 21.2894 14.5044 3.43685 -7.46514 -1.85453 0.34007
262 3 19.5755 15.9391 0.072251 -2.59885 -0.894989 -1.27275
261 3 17.8259 14.2472 0.0393662 -3.13326 -3.58811 4.07856
265 3 21.4336 14.1809 -0.0627414 3.15805 -1.42951 2.4484
268 1 23.0969 14.2155 1.7379 -1.69948 3.28104 5.24722
271 2 24.7939 16.0114 1.81674 0.801429 0.264736 4.86086
1166 2 23.257 16.1122 3.57311 2.48778 4.52504 -0.481547
1169 2 24.7874 14.1548 3.584 -0.0123433 1.90847 4.3209
269 1 24.8457 14.0587 -0.082044 -3.00796 -3.08197 -2.92531
1201 1 0.0387818 17.8376 3.50518 0.961503 -1.74806 -3.34263
304 1 1.69692 17.8493 1.59635 4.93658 -3.19252 1.65088
307 1 3.52615 19.5098 1.62534 -0.266835 -1.52965 -1.7244
364 2 1.75527 21.5244 1.58016 0.0277894 -0.225728 1.26085
1202 3 1.79411 19.6836 3.44169 3.90638 -3.03436 -4.27166
1265 3 3.45897 21.4135 3.58671 1.191 0.623884 1.99042
303 2 0.153782 19.5953 1.65713 0.763354 -0.659578 5.90967
1261 1 0.105599 21.5364 3.48887 3.39195 0.945413 2.21386
309 2 6.98981 17.8376 -0.011817 4.15579 3.79378 -0.715364
311 1 7.02769 19.4297 1.79591 -3.23287 -0.0424297 -2.58298
368 2 5.25746 21.2994 1.67359 -1.4285 -0.590602 3.67411
1206 2 5.33907 19.4101 3.50879 -0.933597 -3.61019 5.48471
1269 2 7.09437 21.3917 3.50466 -4.54422 1.91921 4.39791
306 2 5.29466 19.565 0.0925646 -0.660446 1.94247 -5.99997
1210 2 8.72231 19.5101 3.53145 -1.83849 1.61532 5.68344
372 1 8.8228 21.2718 1.77333 -1.2464 5.12071 0.690574
315 2 10.5698 19.5964 1.92444 -2.42593 0.195686 1.94784
376 1 12.3519 21.3541 1.74485 -2.00456 0.465324 -0.730745
1214 2 12.232 19.5747 3.52796 1.78233 -2.86961 -1.64708
1273 1 10.5767 21.4665 3.53167 0.0725793 -1.49552 -0.658248
373 1 10.5928 21.3688 0.0247782 -3.26859 -1.76295 3.68811
310 1 8.92418 19.492 0.0353 -2.26106 1.19425 -1.23376
1217 1 14.135 17.8125 3.42321 -6.6966 -3.66686 3.66796
320 2 16.0787 17.8145 1.72341 -1.9166 -1.62153 3.70737
317 2 14.3168 18.0497 0.149796 1.06625 -2.44746 1.82659
319 2 14.2632 19.612 1.88163 0.502649 2.74215 -3.66453
380 2 15.9321 21.5597 1.82925 0.492311 0.688567 1.60707
1218 1 15.8079 19.687 3.65263 0.310598 3.16142 -0.76952
1277 1 14.0836 21.2895 3.67578 -1.00992 -0.740964 3.52649
1281 2 17.773 21.2646 3.61639 3.68868 1.29426 -0.270401
318 1 16.0805 19.7832 0.0547404 -0.715001 -7.91568 3.36531
1221 1 17.6379 18.0631 3.65273 2.27092 -1.2166 -5.72812
377 1 14.176 21.4193 0.118613 6.12815 5.15842 5.16011
1225 1 21.4686 17.8389 3.54637 -0.941439 2.7166 -1.13716
323 1 17.8854 19.6951 1.80231 -5.29707 0.722108 -2.33547
324 2 19.6043 18.0025 1.683 1.16551 -1.14782 -2.06903
327 3 21.5738 19.4752 1.55809 -4.91238 0.633658 2.2222
384 2 19.6292 21.5029 1.78927 -2.11712 1.16294 7.53281
1222 1 19.6367 19.5966 3.42398 1.91314 4.23303 -0.232802
1285 3 21.4926 21.6346 3.45642 1.39502 1.03614 3.39629
381 3 17.9011 21.4328 0.0116652 1.37341 1.29296 -4.91652
322 1 19.808 19.7052 -0.0170164 2.15202 -1.73068 -3.04969
385 3 21.5125 21.5072 0.211243 4.43384 2.01286 -0.799181
1229 2 25.051 18.0525 3.47607 -2.06711 4.25854 -0.256742
332 1 26.5292 17.8256 1.78662 0.937393 -2.38801 1.9976
328 1 23.3932 17.9359 1.54907 6.76446 -1.77423 -2.18986
331 3 25.0389 19.7444 1.73754 4.56219 -2.02087 2.62357
388 3 23.214 21.4302 1.94036 4.40522 1.5494 0.884411
1226 3 23.1818 19.5676 3.6201 2.45677 0.344864 0.833384
1289 2 24.9778 21.5014 3.65784 3.72091 -0.920595 -2.60273
389 3 25.0467 21.4637 0.1202 -0.343296 -6.39617 1.70246
427 3 3.44641 26.7383 1.78584 -1.5027 -1.07214 2.32231
1321 1 -0.0354998 24.8791 3.32833 -2.67598 -2.2079 1.27655
367 1 3.41743 22.9262 1.63093 -6.58246 -0.431111 -2.6844
424 2 1.86475 24.9612 1.72262 -1.92264 -0.397015 -3.9767
1262 3 1.68247 23.2733 3.42579 1.12379 -4.43453 2.34981
1325 3 3.47849 25.021 3.44452 -0.314578 1.15093 -9.49428
425 3 3.64474 25.1526 -0.0871369 2.86847 2.5781 -3.25747
363 2 0.0720079 23.0492 1.56402 -1.02359 -5.26153 0.623963
362 1 1.80845 23.3246 -0.0116991 1.88283 -0.305036 4.14935
371 1 7.1296 23.1934 1.59088 -3.45759 1.45577 0.296922
428 2 5.36251 24.7851 1.62251 -0.8 -2.49309 -2.95994
1266 3 5.35036 23.0262 3.43896 -0.740283 2.1057 2.06466
1329 3 6.91216 25.0454 3.50011 0.569595 -3.09826 -0.466399
432 1 8.8193 24.995 1.65975 3.14715 -0.640193 -2.45141
430 3 8.73755 26.7159 -0.0485495 4.06227 0.0626147 -3.82715
366 1 5.24608 23.2175 0.0464959 -0.644223 -0.958947 -2.90379
1270 3 8.76611 23.4229 3.5525 2.89141 -0.399184 1.99541
429 2 7.00458 25.0146 0.0861062 -1.34212 -0.0744932 -1.90588
375 2 10.5869 23.261 1.7815 2.14186 2.39506 -2.03384
436 3 12.4714 24.9601 1.72781 1.05774 -1.51483 -1.96282
1274 2 12.3997 23.1457 3.48463 -0.419855 -1.20286 1.58222
1333 1 10.738 24.9162 3.50786 2.13855 -5.79786 -3.53923
370 3 8.91232 23.1559 0.00206474 -4.90087 -4.30854 -3.38979
374 1 12.3347 23.1658 -0.0153237 1.38212 1.25983 -1.15496
433 1 10.5665 24.8539 -0.00881618 -3.21244 -7.76905 1.247
435 2 10.6315 26.6046 1.68752 -4.1314 0.121895 -1.6073
379 1 13.9641 23.2659 1.84868 -6.04523 -1.21434 6.24082
440 1 15.9503 24.9333 1.70346 2.4982 -2.39807 2.9397
1278 2 16.0782 23.0157 3.71929 0.947662 2.82867 -1.74698
1337 1 14.2545 24.8758 3.56981 2.98592 -4.80844 -1.48745
383 1 17.5888 23.1173 1.96586 0.271188 -0.070136 3.40948
441 2 17.6186 24.927 0.0860346 -4.40525 -6.55898 1.4433
1341 1 17.5735 24.911 3.73973 6.02657 3.2772 -2.42122
443 2 17.4562 26.6199 2.09656 6.27665 3.54082 0.254654
378 1 15.9997 23.0882 0.0276622 -1.80356 -1.66711 -3.86402
439 2 14.3162 26.7087 1.79244 -0.108655 1.81699 -3.4364
442 3 19.3971 26.6848 0.199225 0.177157 -1.62668 4.5082
387 3 21.4199 23.3439 1.86475 1.54333 -2.60878 1.00596
444 3 19.5248 24.8732 1.69992 4.86201 1.64782 -3.29295
1282 3 19.5568 23.2037 3.78664 -2.872 -1.99359 2.00169
1345 3 21.3925 25.0632 3.52512 0.848527 -2.42662 4.6881
382 3 19.5268 23.2348 -0.0514454 -0.719724 -1.6526 -5.61278
445 3 21.5337 24.9948 -0.000302988 -0.683818 -4.97877 7.06253
391 3 25.0535 23.3841 1.78785 0.328576 1.68522 -1.50113
448 3 23.1599 25.2091 1.8919 -1.34067 -1.3364 -1.84772
1286 3 23.2467 23.1685 3.5951 -4.88733 -2.01665 -3.39157
1349 3 24.9906 25.1318 3.61307 -5.20897 -2.50589 -1.79782
452 1 26.6749 25.1454 1.69906 3.46772 4.47101 -4.0851
449 3 24.8375 25.1736 0.0310362 3.94184 -4.43245 -0.0175221
386 3 23.3063 23.2406 0.243011 -1.50604 3.08612 -3.72711
1290 3 26.7285 23.3627 3.54574 3.15082 -4.90454 1.25715
390 2 26.7427 23.4416 -0.0106489 -0.525704 2.27743 3.46689
907 2 3.37671 1.89717 5.25228 -0.392032 -1.66644 -7.01818
964 1 1.67532 3.63823 5.31641 -2.2049 3.51776 3.61939
1802 1 1.72834 1.84311 6.92587 6.60512 -3.62465 -1.03152
1865 1 3.51047 3.70978 6.93171 -1.08827 -0.196474 2.30371
904 1 1.79723 -0.0761856 5.16857 -0.515863 -2.12057 1.31957
1805 2 3.62169 3.75136e-05 7.05093 5.95951 -1.73922 1.3781
1807 1 3.6944 1.95613 8.66969 1.5542 -0.538175 0.293
1803 2 0.0191092 1.85966 8.64911 -1.27863 -0.867075 -1.87053
1861 2 0.0566474 3.43239 6.91595 0.606213 -0.323494 -1.54051
903 1 0.00511147 1.63087 5.31202 2.36105 -0.312963 -0.228767
911 2 7.15136 1.69202 5.24658 -1.48923 -0.487051 1.07437
968 1 5.48679 3.51588 5.12025 2.69609 3.70975 -1.85835
1806 1 5.34861 1.84086 6.92026 3.36357 0.7081 -3.15857
1869 3 7.3925 3.62805 7.02815 5.18952 1.05602 2.24645
908 1 5.31757 0.00619374 5.1075 -0.376745 -5.51582 -0.416763
1868 2 5.46873 3.56078 8.82342 2.1838 -5.13253 2.39288
1811 2 7.16696 1.87282 8.76419 -4.29599 2.78972 0.928704
972 2 8.91406 3.39182 5.21698 0.588889 0.896363 2.26459
1810 3 8.93937 1.6214 6.81883 -4.02521 0.621644 1.96939
915 1 10.7512 1.6325 5.22501 1.00461 -4.03528 1.11059
976 2 12.4123 3.47114 5.11083 0.780523 3.62227 4.4246
1814 2 12.4417 1.75847 7.00098 -0.124498 3.67257 0.35682
1873 1 10.6716 3.51644 6.87525 5.598 2.28622 -0.397628
1876 3 12.5126 3.45149 8.78684 -1.70552 0.816445 2.49731
1815 3 10.6216 1.72113 8.73663 2.08183 0.136971 -0.320341
1872 3 8.98023 3.41886 8.8022 -0.985976 2.91145 1.30864
1816 3 12.5154 -0.0526015 8.8458 -2.53453 -3.50517 -1.53191
1813 2 10.6624 -0.0272964 7.06655 -0.603556 3.33822 -3.23134
1820 1 15.9007 -0.044898 8.74705 -1.25807 1.15557 -0.232605
919 1 14.2018 1.75691 5.28746 1.5254 3.13408 -2.65902
980 2 16.0239 3.69635 5.47752 -1.11838 -1.73916 1.83849
1818 2 15.9127 1.60126 6.84503 2.70717 1.68267 2.87783
1877 1 14.3897 3.63787 7.15536 1.81287 -0.565496 -2.026
1817 1 14.231 0.00913543 7.08876 2.56924 0.464654 1.7523
923 1 17.7774 1.76797 5.33765 -0.936257 2.13065 -0.191826
1819 2 14.3418 1.67427 8.77593 0.71043 -1.24194 -3.33103
1825 3 21.3906 0.0915967 7.13581 1.76786 1.46342 0.437774
1881 2 17.8753 3.45266 7.20335 0.727862 4.58757 4.27147
927 1 21.3707 1.9732 5.33683 1.47153 3.33175 -4.64477
984 1 19.5707 3.50842 5.34059 -5.35636 -1.03478 0.132412
1822 1 19.4006 1.70127 7.13182 -1.04553 4.04996 4.40607
1885 2 21.4115 3.57891 7.27001 7.87716 -5.62851 -1.22567
931 2 25.0335 1.75133 5.26133 -0.203244 -1.52459 0.544537
988 3 23.2912 3.62623 5.39676 -2.62073 -3.36383 -0.792114
1826 3 23.345 1.89138 7.12893 3.66757 4.8714 -0.57449
1889 3 25.1568 3.58665 7.14528 1.07003 -2.96144 4.58152
928 3 23.2211 0.0915168 5.30629 1.43622 -0.00271815 -1.88921
963 1 -0.0623709 5.33557 5.31402 1.26996 4.57328 -2.24007
967 2 3.5694 5.27037 5.31609 -1.23706 0.340876 3.23349
1024 3 1.81399 6.98365 5.16929 5.57755 -1.43418 -2.00677
1862 2 1.57505 5.30517 6.97507 0.921469 1.13257 -2.32473
1925 3 3.58275 7.09542 6.97993 -0.518486 -3.52819 0.456491
1922 1 1.80536 8.72167 6.94759 -0.891781 -0.943629 2.62636
1027 3 3.45873 8.75247 5.11201 4.03871 7.02066 1.1854
1924 2 1.67041 7.13155 8.8366 -1.05655 -1.42083 1.88906
1867 1 3.47549 5.32559 8.77665 4.64208 0.0996552 -0.861014
1023 3 0.0383644 8.83217 5.18553 0.204834 5.57871 4.96022
1927 3 3.59061 8.83925 8.78717 2.74357 -0.0553981 -1.33585
971 1 7.12731 5.35658 5.24472 -0.0233538 1.62332 1.75441
1028 1 5.43948 7.08292 5.17686 0.98513 -0.195244 -3.19948
1866 2 5.40853 5.30393 6.99627 1.66635 2.68182 -2.42225
1929 3 7.04642 7.05725 7.12356 2.1835 -0.31537 1.69166
1926 2 5.31236 8.85213 7.23243 2.75355 3.72967 -0.528434
1928 1 5.17842 7.11282 8.85023 8.51861 1.43344 -1.18494
1032 2 8.96215 7.04576 5.41282 -1.19179 -1.97592 -3.01025
1870 3 9.02536 5.33373 7.13612 4.53567 1.90901 -3.05121
1930 3 8.89075 8.84043 6.84652 -1.78163 5.23914 -3.03798
975 3 10.8006 5.46603 5.32845 -0.278419 0.935491 0.813815
1036 2 12.6111 7.20493 5.20687 1.23691 2.23898 5.09953
1874 2 12.6692 5.31715 7.12641 1.66721 -3.22547 0.957953
1933 3 10.8756 7.12084 7.0502 -0.0883333 -1.64629 -0.847634
979 1 14.3189 5.34847 5.2469 1.48189 1.76446 0.660183
1040 2 16.0793 7.14165 5.276 3.72358 2.43378 0.178721
1878 2 16.092 5.44159 7.16715 -3.311 -4.34478 0.166415
1937 1 14.2872 7.13729 7.10577 0.0703099 -1.27695 -0.688184
1941 1 17.9074 7.09389 7.05107 -2.29105 -0.928966 0.840346
983 1 17.8731 5.24133 5.4015 -0.540599 1.27138 2.59067
987 2 21.4612 5.4241 5.28206 -5.21812 -3.06383 5.72625
1044 2 19.5544 7.12821 5.40003 -0.445782 0.79782 -1.74327
1882 1 19.7583 5.22908 7.29992 1.70701 -0.126044 -5.32335
1945 3 21.3794 7.06652 7.1772 -4.38501 -0.240922 4.46206
1944 2 19.5797 7.04375 8.76172 -1.42705 -3.04092 0.410377
1047 3 21.4907 8.7585 5.43982 -3.79981 -1.42332 3.96108
1883 3 17.8351 5.33024 8.85657 -2.14626 -0.225322 1.64284
991 3 24.8779 5.28635 5.35624 1.94457 1.32519 -2.41206
1048 1 23.0672 6.99431 5.42129 -0.522661 1.79276 -1.39092
1886 2 23.2171 5.15709 7.28648 0.889783 6.41451 3.5049
1949 2 24.9833 7.22797 7.24558 -4.80701 -0.456358 0.746723
1051 3 24.8955 8.84369 5.29411 0.989366 -0.412748 0.467733
1052 2 26.6503 7.24293 5.2272 -1.30719 -1.94283 0.0493717
1890 1 26.6886 5.44332 7.27975 2.79408 2.19533 -0.595574
1891 1 25.0341 5.22608 8.79726 -2.26638 0.344497 4.02322
1981 3 0.10525 10.5631 6.96179 -1.66533 -1.99537 1.24335
1084 3 1.88129 10.7433 5.32557 3.01604 2.80164 2.51235
1087 3 3.52157 12.5659 5.19561 2.34191 0.267975 1.90962
1982 3 1.74125 12.6037 7.20011 -2.0822 4.56926 0.183716
1985 3 3.5702 10.569 7.03924 4.59878 0.740729 -1.07118
1987 3 3.54298 12.4776 8.78704 -0.679131 -6.38279 -1.70958
1083 3 -0.0363072 12.3325 5.36703 3.44274 2.82017 3.26589
1984 3 1.88446 10.5444 8.85918 -1.18784 0.410253 -1.07583
1031 3 7.02714 8.8913 5.39636 0.194322 -1.53638 -0.0857462
1088 3 5.2514 10.7287 5.10273 3.46708 -4.45824 1.28604
1091 3 7.36662 12.3152 5.22604 0.759281 -4.37315 -1.48292
1986 3 5.32694 12.3973 6.92972 0.407817 2.26383 -5.45173
1989 3 7.04955 10.4637 6.99018 1.04065 2.04626 -0.520561
1988 3 5.48638 10.7127 8.80212 2.25474 1.22147 1.03405
1991 2 7.0103 12.4861 8.78462 -3.02198 -4.89492 1.0515
1931 3 7.19214 8.93723 8.80482 -0.379556 0.255569 -2.2029
1035 3 10.5888 8.90763 5.35641 0.673108 1.89073 0.0296157
1934 3 12.5542 8.92745 7.20506 -0.880874 0.958944 2.58551
1092 1 8.90745 10.5702 5.27181 0.614933 -3.0363 0.587912
1990 3 9.00811 12.5444 7.01999 -1.50497 -0.179528 -1.52325
1095 3 10.7033 12.3187 5.33327 2.08333 -2.02752 -0.664844
1096 3 12.5372 10.5062 5.37771 6.4368 1.26353 2.36689
1993 3 10.7419 10.6085 7.01466 -0.387329 -0.0717766 2.7651
1994 3 12.6025 12.3408 6.94372 -2.94001 -5.06737 -1.23957
1992 3 8.86749 10.8048 8.81456 -0.619713 -2.63261 4.33864
1995 3 10.7232 12.3695 8.74853 1.65988 -3.53814 -1.49131
1938 2 16.1544 8.88526 7.23109 1.56892 1.69726 1.10728
1039 1 14.2476 8.85982 5.43818 4.74424 -5.61055 6.42674
1099 2 14.4688 12.4948 5.30788 -0.161221 -1.25107 2.52064
1100 1 15.9761 10.765 5.49281 2.24819 -2.17858 -0.441339
1997 2 14.4075 10.6966 7.12719 -0.399893 -0.560648 0.148367
1998 1 16.1387 12.7076 7.09165 -6.82977 -0.946227 0.361291
2000 2 16.2998 10.8385 8.77596 0.367796 -2.38572 3.45208
1103 2 17.7436 12.7218 5.33691 -1.73231 -1.71762 1.34085
1043 3 17.7553 8.98539 5.49092 -1.63019 -4.80509 0.549469
2001 1 17.839 10.6196 7.20208 1.11935 8.0366 0.777215
1942 3 19.724 9.02281 7.07694 1.43801 0.0242627 -0.483727
2003 1 17.9478 12.3745 8.72459 2.9789 -1.21182 0.525038
1104 3 19.5967 10.9238 5.23807 2.80496 3.82102 -4.782
1107 3 21.3773 12.5206 5.23275 -1.91663 -1.06534 -5.55229
2002 2 19.5541 12.5691 6.97843 -1.0397 5.6391 1.84459
2005 3 21.364 10.8388 6.93421 0.564657 0.140864 1.48817
2007 3 21.2336 12.5849 8.79544 -2.35307 1.52531 -3.44236
1946 3 23.152 8.92978 7.14168 -8.94843 9.53566 7.08769
1108 3 23.2414 10.618 5.38283 1.31086 4.49402 4.86382
1111 1 24.8423 12.4893 5.34611 4.43321 -0.115248 -0.0508108
2006 3 23.1556 12.4606 7.25653 1.50429 -0.523323 4.06713
2009 1 25.0477 10.7847 7.1757 -5.69595 0.908147 1.13916
1112 3 26.6905 10.6017 5.27582 1.57401 2.19246 0.63762
2010 2 26.7461 12.4376 7.20728 -5.5373 -2.22166 -0.329399
1144 3 1.74435 14.2836 5.26086 -0.101164 4.51214 -0.181053
1147 3 3.72842 16.0438 5.40219 -2.28392 -2.82449 -0.353625
2042 3 1.57409 15.9567 7.03303 3.11498 4.60644 -4.73805
2045 3 3.5054 14.3144 7.16996 6.30314 4.37435 6.68403
1204 3 1.80438 17.6666 5.25851 1.15482 6.95251 4.14205
2105 3 3.50628 17.6893 7.11643 0.505595 0.902824 -2.4782
2101 3 0.0108568 17.7294 7.15154 -2.96942 -4.49482 -1.79313
2104 3 1.63457 17.8014 8.86806 -0.651703 -0.219351 5.65981
1148 3 5.3472 14.1744 5.32506 0.0300056 -2.78284 1.36893
1151 3 6.98217 15.9948 5.36953 -0.106693 0.653686 2.69963
2046 2 5.33149 16.1554 7.13318 6.60894 1.94355 2.17868
2049 3 7.06164 14.1091 7.0429 -0.641095 0.0855368 3.23646
1212 2 8.72493 17.7042 5.2319 -1.49931 -0.359706 1.26173
2051 3 7.06507 15.7884 8.72594 -5.49897 -0.334509 -4.12326
2048 3 5.2441 13.9662 8.83339 1.8951 -1.28527 -6.85039
1152 2 8.95507 14.1957 5.43883 3.30368 3.13835 -0.723284
2050 1 8.91953 15.9015 7.16057 -0.937381 -3.39217 -2.1507
1155 1 10.6677 15.8802 5.26028 4.71252 1.90586 3.4004
1156 1 12.5389 14.1692 5.23688 -0.841596 0.123737 -4.4242
2053 2 10.8827 14.2766 7.15269 0.959519 4.48626 -1.0711
2054 1 12.4499 16.1443 7.02533 -4.56509 -0.0707795 -4.0116
2113 2 10.5695 17.5143 7.16081 4.17348 0.886897 -2.1741
1216 3 12.2473 17.6632 5.26756 -1.9988 0.193876 4.29647
2056 1 12.4759 14.2702 8.86943 3.31411 -0.764245 3.23948
2055 2 10.6849 16.1055 8.81924 -1.79027 2.78766 1.28273
1159 2 14.2791 16.016 5.31397 -0.615127 -1.74515 2.35731
1160 1 16.0813 14.2864 5.40757 4.72455 -2.89528 1.96605
2057 2 13.9851 14.2836 7.14475 3.87742 1.59632 1.53602
2058 1 16.0172 15.9593 7.06994 -1.27987 0.727619 -0.66575
2117 1 14.367 17.6594 6.99073 -7.08327 -4.27013 0.794975
1163 2 17.7293 16.1074 5.10734 -0.558266 -4.0316 1.87168
2060 2 16.0553 14.2642 8.79229 -0.230843 2.38713 -3.53563
2061 2 17.9783 14.3489 6.96417 1.43928 -1.43643 7.98984
1164 1 19.7116 14.4427 5.18386 -4.39636 0.485267 -3.28754
1167 2 21.3974 16.2349 5.24066 -4.43888 -3.95989 0.989752
2062 1 19.7043 16.1459 7.07599 0.663235 3.82024 5.7987
2065 3 21.2911 14.2647 7.03795 -2.12044 -4.10059 6.19978
2067 2 21.3391 16.064 8.80547 1.58194 2.90006 0.411679
2070 2 26.5712 16.2398 7.05561 -2.15922 0.0438284 -3.2277
1168 1 23.2236 14.2657 5.2453 4.01259 2.45018 0.000695388
1171 1 25.0136 16.1634 5.34168 -1.08305 2.28858 3.3858
2066 1 23.2162 16.0432 7.08405 -4.50026 -0.506896 2.90951
2069 2 24.9025 14.1556 7.23836 -1.31285 0.00550439 -0.141028
1172 1 26.5988 14.2437 5.43205 2.60165 -2.87814 -1.45518
2128 3 23.1548 17.7472 8.81514 -0.710797 2.81287 -1.57213
2132 1 26.7094 17.7497 8.75325 0.102367 -6.26163 -1.37642
1207 1 3.50659 19.4875 5.23372 2.84747 -0.153025 7.95227
1264 2 1.57591 21.4722 5.3985 4.29087 2.13245 2.68312
2102 3 1.61617 19.6057 7.01712 2.12512 1.14469 -2.58703
2165 1 3.54135 21.216 7.06994 -0.607275 1.36731 -0.398756
1203 3 -0.012314 19.554 5.16243 -2.01909 5.52339 -0.280052
2164 2 1.59155 21.3439 8.86505 -7.12145 1.8849 0.816572
2112 1 8.77671 17.8428 8.80494 2.51149 0.873943 -0.237446
2109 2 6.93986 17.8768 7.18663 -3.91668 0.0773485 4.68739
1208 1 5.35492 17.8575 5.4378 -1.31427 0.684198 -5.33109
1211 1 6.94662 19.729 5.266 0.532744 -2.72693 4.96839
1268 1 5.29236 21.3311 5.1689 0.0413871 -1.26379 3.39973
2106 2 5.31376 19.7261 7.14729 0.0437808 -2.61928 -2.99598
2169 2 7.08344 21.4154 7.03213 -4.46051 1.33809 -1.81906
1272 1 8.78609 21.3053 5.41229 5.88189 -0.447559 -4.48004
2110 1 8.8093 19.5479 7.1737 -2.04007 5.09487 3.22569
2172 1 8.65979 21.4111 8.8358 -0.0525056 2.53915 -2.05173
1215 1 10.6076 19.5503 5.29974 -1.39601 -0.807042 -2.71482
1276 3 12.161 21.3293 5.28485 -0.141933 -3.23453 -2.19001
2114 3 12.2123 19.4291 6.98032 -2.91611 0.109604 2.32848
2173 2 10.4304 21.3292 7.04751 0.770736 0.605695 0.676358
2115 2 10.5854 19.5829 8.8005 -3.1136 5.23507 -1.2865
1220 1 15.9823 17.9502 5.34925 -3.67879 -0.824951 -4.33605
1219 2 14.041 19.5942 5.26514 1.03008 4.18506 4.68133
1280 3 15.9291 21.3001 5.36325 2.39294 -2.24987 -1.04773
2118 3 16.0081 19.5085 7.19442 1.34628 -1.60064 2.58258
2177 3 13.9196 21.3111 7.22083 -1.01238 0.582476 -1.02839
2119 3 14.3079 19.5479 8.83025 -0.98568 -2.77795 2.58261
2180 3 15.9471 21.2757 8.83232 -1.53491 -3.09118 -0.364475
1223 2 17.818 19.7231 5.35619 0.954738 4.93215 5.14925
2121 3 17.841 17.9123 7.09719 -0.19907 4.2346 2.28611
2181 1 17.8608 21.311 7.30874 1.82847 -0.701244 -4.37948
1224 2 19.7565 18.0463 5.18176 0.610797 0.983431 0.106412
2125 1 21.4024 17.9905 7.20022 -0.0547681 1.08761 -7.12647
1227 2 21.3123 19.6803 5.28422 1.61602 5.0571 3.23288
1284 1 19.4385 21.4165 5.5144 4.43124 -1.09613 5.15456
2122 1 19.5221 19.5717 7.17598 0.320032 -0.315682 0.933453
2185 2 21.4543 21.3349 7.20661 6.77287 -0.301195 3.61222
2124 2 19.5113 17.8125 8.79805 -2.60007 -1.79584 0.888226
2184 2 19.7234 21.4915 8.84049 -0.396599 -2.40382 1.5428
1228 1 23.2253 17.8809 5.24475 5.1509 3.32873 -0.845424
2129 2 24.9691 18.0219 7.24902 -2.68081 2.62809 -7.30205
1231 3 25.06 19.5573 5.2092 0.877374 1.60913 1.63509
1288 1 23.0856 21.4622 5.3119 0.150174 2.46119 4.92307