ITEM: TIMESTEP
82200
ITEM: NUMBER OF ATOMS
13500
ITEM: BOX BOUNDS pp pp pp
-7.9514657953307477e-02 5.3599514657940723e+01
-7.9514657953307477e-02 5.3599514657940723e+01
-7.9514657953307477e-02 5.3599514657940723e+01
ITEM: ATOMS id type x y z vx vy vz
7 3 3.48318 1.77719 1.77109 -2.29053 -0.585665 -0.353462
64 3 1.65648 3.47273 1.73002 -6.53953 0.535546 1.42462
902 2 1.87926 1.2967 3.76124 1.28641 -1.57538 -0.941188
965 1 3.51272 3.44758 3.57778 5.51598 -0.246502 3.95897
3 1 0.0396537 1.67627 1.64815 3.90794 2.0091 -1.26405
11 1 7.15103 1.62389 2.01293 -0.484797 -2.10863 3.62997
68 2 5.07041 3.43263 1.8725 0.39302 -2.66405 3.11951
906 2 5.24234 1.51035 3.68387 -1.71601 4.98328 5.83638
969 3 7.08623 3.45285 3.54765 1.44757 -2.57014 -2.48313
6 3 5.28613 1.67115 0.0367027 4.56847 -2.83461 2.37399
69 1 7.26784 3.22996 0.0438332 5.90589 0.805934 -2.36615
10 1 8.70016 1.47464 0.0271697 -1.08954 -4.18925 -0.376283
72 2 9.07495 3.3372 1.87286 -0.967513 1.49347 2.73739
910 1 8.92255 1.57321 3.54601 -1.49231 -0.52705 -7.03347
15 1 10.5867 1.58794 1.80873 0.0898306 2.35489 -3.30142
76 2 12.3686 3.25128 1.71274 -1.54232 -1.40254 -0.595124
914 2 12.5647 1.65625 3.58899 -3.31796 7.10503 0.812295
973 1 10.7044 3.29303 3.77338 -1.61347 -0.98685 0.397266
73 1 10.6038 3.26418 0.125717 1.66875 -2.80664 1.51507
19 1 14.2996 1.75953 1.68283 2.38282 -1.78589 2.78237
80 2 16.0451 3.58491 1.69746 -3.85568 -1.83218 -0.00647555
918 1 16.0152 1.76555 3.59513 -4.10317 2.70136 -2.10269
977 2 14.3918 3.32607 3.60393 -0.160243 -1.4948 -3.26451
81 1 17.7174 3.77104 -0.054031 0.925438 0.467745 -1.34974
20 2 16.131 0.0930535 1.78009 -6.27691 4.06726 0.0326534
981 2 17.7411 3.53158 3.66038 -2.10822 -1.79003 0.29594
18 2 15.9288 1.65588 -0.00606355 1.631 -6.12808 2.16846
77 1 14.3735 3.34423 -0.0688392 -1.15113 -3.3669 -1.5414
23 1 17.8345 1.88362 1.69157 -3.53014 -0.454209 1.55308
27 1 21.5077 1.56754 1.76512 0.676945 1.45551 2.71268
84 1 19.6577 3.55565 1.5374 -4.01072 0.334301 -5.10397
922 2 19.5015 1.77122 3.54611 -0.735232 -0.877745 2.55132
985 2 21.2604 3.29583 3.3869 1.97841 -0.929577 -0.442359
24 1 19.6094 -0.0180408 1.70544 -1.29753 -1.70375 -1.51787
21 3 17.8512 -0.0398859 -0.0454917 -2.09572 -2.40511 -1.15504
921 1 17.8759 0.0190281 3.55156 -0.710395 2.27722 -1.96755
22 2 19.5537 1.68763 0.155929 -2.75024 0.307679 3.35515
31 2 24.9133 1.53861 1.80099 -4.18199 1.82319 5.36676
88 2 23.257 3.45844 1.95716 -0.716151 -0.827473 -0.98251
926 1 23.2004 1.47854 3.59201 -0.0441397 -4.88368 0.320143
989 3 25.0781 3.46452 3.48554 -1.65678 0.961177 -2.03154
26 3 23.2894 1.64487 0.0728854 1.01199 3.34111 -3.22819
89 1 25.009 3.52443 0.134434 3.80394 0.144148 2.80541
67 1 3.63054 5.38106 1.83614 -2.19004 4.60435 -3.06369
124 2 1.65917 6.90619 1.82307 -2.0705 0.703724 -1.22424
962 2 1.61001 5.176 3.84557 0.310885 -0.702462 -0.803083
1025 2 3.42718 7.08973 3.54272 -0.586072 4.69085 -2.69927
1022 1 1.74252 8.72368 3.44012 1.0399 -0.251271 -2.78115
127 3 3.63873 8.81591 1.83178 -6.959 4.49632 -2.569
1021 2 -0.0635864 7.19281 3.52832 0.610787 0.27441 3.64004
121 1 -0.0481423 6.83065 0.0628583 -1.28742 -0.411449 -1.8728
125 2 3.32005 6.72262 -0.0156385 2.45541 -0.451468 -0.133244
62 2 1.66916 5.12813 -0.0214944 -1.76106 1.19168 -2.95423
123 2 0.396494 8.77851 1.51848 -4.24724 1.62894 -0.416207
71 3 7.21025 5.14692 1.66188 0.670689 -6.29359 -4.17318
128 3 5.256 6.99346 1.6872 -0.822414 -3.30404 2.60556
966 1 5.23073 5.35264 3.70802 0.0158041 -2.84422 -0.743995
1029 3 7.10887 6.93878 3.42157 -1.72927 -1.61756 2.8015
1026 3 5.2717 8.69599 3.5303 4.72184 0.297646 -0.339867
129 3 7.02317 6.99578 -0.0527309 -0.511417 -0.356842 -1.16836
66 2 5.33906 5.07618 -0.0856898 2.04204 -1.05459 -5.67179
126 3 5.16244 8.8008 -0.0815403 2.40003 -3.11184 -5.58444
131 3 7.18203 8.70102 1.83409 6.33607 -0.979064 -0.672305
1030 3 8.78775 8.63655 3.51921 3.16725 4.27532 1.86576
70 3 8.85422 5.05278 0.00922177 0.613554 0.884166 3.60757
132 2 8.88554 6.98994 1.66492 3.23012 0.771669 -2.19173
130 1 8.98681 8.85264 0.0386769 2.86497 -0.802075 -0.499912
970 1 8.97298 5.30055 3.53342 2.37852 0.807973 -0.248343
75 1 10.6104 4.95897 1.75789 -0.616523 0.0758109 0.920574
136 2 12.4512 6.80916 1.48408 -1.35722 1.2537 3.94053
974 3 12.4453 5.27316 3.60591 1.64909 -2.01421 -0.021188
1033 1 10.6829 7.03749 3.32781 0.733641 4.0158 1.10025
135 2 10.7367 8.79942 1.68652 0.3435 -0.0346496 1.96448
1034 1 12.3485 8.72925 3.47983 0.955032 -3.4903 1.57466
79 1 14.3589 5.00823 1.51524 2.60758 -3.54092 7.79903
140 1 15.967 6.96571 1.72469 -0.754535 -3.5592 1.0545
978 3 15.8954 5.25666 3.53634 -0.266911 -0.988976 3.23566
1037 2 14.0443 7.12799 3.62717 -2.53994 -6.23265 -1.38355
1038 2 15.8771 8.7664 3.59896 -1.44681 -3.8758 3.72725
139 1 14.1415 8.74089 1.61005 -0.193149 6.17682 -4.53259
1041 2 17.8186 6.81953 3.5726 4.1373 -3.7611 -3.63924
143 1 17.762 8.6218 1.64469 -0.829048 -0.316339 -3.24098
83 2 17.8536 5.1377 1.97257 -2.14768 2.96482 3.81005
87 1 21.4551 5.29568 1.7419 3.34961 3.48781 1.3445
144 2 19.5101 7.03405 1.77728 0.918196 -4.53898 1.30249
982 1 19.462 5.27921 3.64535 -0.345571 3.39761 4.35786
1045 3 21.344 7.09968 3.64858 -1.11118 -0.366021 -1.34256
147 3 21.1979 8.7731 1.85963 -0.383246 -1.07534 -7.34299
1042 3 19.4286 8.60396 3.51415 0.859677 4.0086 3.45216
82 1 19.7093 5.35121 0.114073 2.15132 -1.72932 -1.57478
142 3 19.4906 8.84678 -0.0177869 -0.256216 -5.77195 0.798143
91 3 24.9643 5.23825 1.74699 3.99648 4.24168 8.27013
148 3 23.0053 7.11306 1.75235 0.322653 -0.771455 -1.85542
986 3 23.0244 5.22466 3.59169 1.66877 -0.429953 3.50442
1049 3 25.008 6.93812 3.31199 1.57589 -1.77325 2.10938
151 3 24.8866 8.68557 1.72662 -0.467764 1.80568 -1.76804
1046 3 23.2661 8.7396 3.6046 -3.61699 -4.00064 0.0656077
86 2 23.1577 5.3812 -0.0593298 -1.05098 -2.02777 1.16524
1081 3 -0.0131772 10.3855 3.52121 1.71668 0.0526626 -0.430479
184 1 1.77526 10.4569 1.74319 0.0928738 3.89846 -1.98548
187 1 3.4376 12.3419 1.79173 -6.97877 2.72865 -2.07596
1082 3 1.68243 12.2904 3.51208 -0.954395 -0.884714 0.0986224
1085 3 3.56214 10.6359 3.6307 -1.4316 -1.00579 -0.0728778
183 2 0.0210507 12.1265 1.73171 3.71568 -1.68147 1.21469
182 1 1.77722 12.279 -0.0273115 0.548363 -1.54452 -2.01128
188 3 5.39254 10.491 1.7376 5.28325 2.05969 -1.95674
191 2 7.15813 12.4496 1.71922 0.304171 -1.85431 -0.754683
1086 3 5.29751 12.4322 3.42128 -5.15837 5.8716 -2.76117
1089 3 7.06022 10.6678 3.54318 0.779371 1.86405 4.16672
189 2 7.3046 10.5911 -0.010613 1.64476 0.288081 3.02044
186 1 5.22186 12.3182 0.0881642 0.175815 -0.0642602 2.63311
192 1 8.78504 10.6848 1.90403 -1.47247 -0.698184 3.15018
134 1 12.3296 8.89032 -0.029671 3.0912 2.84494 1.45298
1090 1 9.05316 12.2922 3.6557 -6.90077 -3.56598 -0.638692
195 1 10.7186 12.3993 1.86261 0.167524 -3.4707 -0.734738
196 1 12.3896 10.5662 1.64917 0.637755 1.73464 0.612877
1093 2 10.7278 10.4418 3.48771 3.78583 2.23858 -6.67936
1094 2 12.4575 12.173 3.60831 -9.16427 1.8419 -3.41313
193 2 10.5691 10.6479 0.000424258 -2.61653 2.58104 -4.17209
190 2 8.95364 12.1955 0.0291171 1.69387 1.76226 -1.38113
199 1 14.1103 12.1348 1.58421 2.75787 -1.0682 -1.46809
200 3 16.0508 10.5408 1.6333 4.00317 -2.41994 -1.21876
1097 2 14.3611 10.4895 3.50576 -1.1276 -0.530857 -1.46897
1098 1 15.8283 12.3963 3.56124 -0.237325 -0.641173 1.22866
203 3 17.7883 12.37 1.85634 -0.55184 0.555112 0.25015
1101 3 17.8821 10.6013 3.55227 -0.182406 4.44258 2.32181
201 3 17.8433 10.5724 -0.0526224 -3.48234 4.07161 0.80148
204 3 19.562 10.4438 1.78645 -2.2787 -1.61567 -3.50685
207 3 21.5542 12.2278 1.90051 -1.53853 6.27473 1.60244
1102 3 19.7478 12.2344 3.53153 0.94923 -2.16925 -3.1665
1105 3 21.5355 10.634 3.58742 0.646364 0.773595 -0.997423
202 3 19.5766 12.3547 0.0810196 -1.10896 0.162041 2.42857
205 3 21.4076 10.5663 0.00187042 5.00458 1.70425 -0.396166
208 3 23.1559 10.2954 1.65079 1.27152 3.23738 5.02776
211 1 25.121 12.2933 1.70557 -0.00608873 -2.91297 0.542872
1106 2 23.301 12.2118 3.50362 0.581024 3.18005 0.00119556
1109 2 25.0994 10.5271 3.54389 -1.89255 0.874906 -4.20138
206 2 23.4936 12.2619 -0.0163796 -2.14053 1.63544 -2.49635
209 1 24.9798 10.4525 -0.0647847 -3.1438 4.20931 1.29327
244 1 1.85275 14.1071 1.94153 -0.570005 0.896171 -5.32235
247 1 3.47163 15.9457 1.80165 0.993629 -4.91943 -0.896773
1142 3 1.77075 15.9387 3.54506 0.607908 -0.67098 0.671722
1145 2 3.58393 14.2499 3.58889 0.377134 1.83161 2.67684
243 2 0.0679432 15.9953 1.70088 -2.91209 1.41914 0.138937
241 1 0.210467 14.1219 0.0627649 -4.39837 -2.81645 0.45313
1141 3 0.0813154 14.325 3.51165 1.47456 3.88091 -3.59181
245 2 3.59781 14.0631 0.0165478 -3.93174 2.69169 6.17946
248 2 5.33952 14.29 1.71693 -3.24929 2.02201 -0.839021
251 2 7.19284 15.9693 1.70864 0.532746 3.02585 1.14364
1146 1 5.40612 15.9808 3.46814 -2.03544 0.0429531 0.990593
1149 1 7.10335 14.2886 3.38776 -0.896264 1.70734 -1.47035
1209 2 7.23775 17.7378 3.45091 2.89234 0.826272 -3.77719
246 1 5.1689 16.0638 0.0531115 0.819387 -2.16754 0.679739
249 1 7.02274 14.0913 0.0224133 -1.7493 -0.500367 -1.10759
1150 2 8.74997 16.0183 3.55709 -0.758253 -1.2233 -7.57415
308 1 5.52139 17.754 1.81086 -2.37815 -3.33502 -4.08053
309 2 7.4734 17.7677 0.0256237 -0.977315 4.16064 4.81579
252 1 9.12396 14.083 1.65335 -3.56753 6.71214 2.61395
312 1 9.12946 17.7727 1.65324 -0.0442536 -1.86839 -1.2746
255 2 10.7043 15.7823 1.66641 0.724473 -4.13293 0.624479
256 2 12.5112 14.0421 1.82626 -1.70885 6.15693 -0.805485
1153 1 10.5507 14.1418 3.45935 -0.188291 -0.34795 2.24192
1154 2 12.4324 15.9979 3.41407 -1.48441 4.38312 3.89718
1213 1 10.6258 17.5595 3.80046 2.92507 -1.16885 0.711738
254 1 12.529 16.0536 0.057045 4.49142 -0.878398 0.336368
250 1 8.8869 15.7728 0.074156 -4.56459 0.718356 -1.6956
316 1 12.4975 17.7232 1.88953 1.9443 -3.07059 4.46462
259 1 14.1719 15.9869 1.80497 3.22434 -5.69531 -1.70779
260 2 16.2338 14.0023 1.76794 -5.2503 -2.50494 0.557012
1157 1 14.0984 13.9268 3.42636 1.8268 -4.64381 -2.54859
1158 2 15.9728 15.8742 3.45249 4.19794 -1.2365 -3.77508
258 3 16.0422 15.8287 -0.02045 0.427706 0.234038 -0.301901
317 2 14.3032 17.7109 -0.0767048 1.95055 -0.217411 -0.804792
320 2 16.1282 17.6522 1.62464 -4.78308 0.326565 0.328417
263 1 17.7875 16.022 1.72789 2.92509 -7.65163 3.63307
1221 1 17.7272 17.6561 3.62362 1.00698 -2.32409 2.2198
257 3 14.2286 14.1129 0.0905261 -3.28133 -3.04217 2.61178
1217 1 14.2521 17.7544 3.49767 0.169399 -2.49681 2.91202
1161 1 17.9493 14.1813 3.60737 -2.38796 4.07754 1.11948
264 2 19.741 14.1383 1.79216 -1.08532 -2.54378 -2.62372
267 1 21.5561 15.9456 1.62371 -4.98427 3.43966 0.642315
1162 2 19.6961 15.8499 3.32666 0.419581 -0.336464 -0.917421
1165 1 21.5973 14.1988 3.51731 0.902474 2.10477 -0.1569
324 2 19.6278 17.7517 1.81738 2.87371 0.737231 1.9702
262 3 19.5279 15.7477 0.144633 1.09185 0.231726 2.79504
265 3 21.6113 14.2 -0.00346098 -1.73204 3.55065 -2.19196
325 2 21.4351 17.7271 -0.022592 3.68346 0.515509 2.01793
1225 1 21.409 17.7259 3.30261 -3.05455 -0.729057 2.34893
321 1 17.9162 17.7559 -0.0755224 -1.02348 -6.14448 0.5984
268 3 23.2049 14.0049 1.81964 1.08753 0.23368 -3.31697
271 1 24.9516 15.7622 1.71417 3.42594 1.10152 0.537046
1166 2 23.3299 16.1658 3.49767 1.27235 -5.08431 0.154728
1169 2 25.0352 13.9859 3.55298 -2.67692 -2.59447 2.91297
1229 1 25.0815 17.677 3.41202 1.55431 3.78229 0.0525265
329 1 25.1999 17.5757 0.0278364 -1.3368 -0.626192 1.0959
266 2 23.3474 15.9364 0.0795324 -0.184387 -2.3628 6.08325
304 1 1.86634 17.8218 1.74385 6.87289 2.13481 2.64577
1205 2 3.58879 17.8476 3.45441 3.40003 -6.02156 -5.48327
303 2 -0.0356791 19.3803 1.73439 -1.59009 -3.20763 -3.93435
307 1 3.62824 19.5715 1.78204 1.96464 2.71895 -5.33954
364 2 1.89967 21.2269 1.50765 1.86785 0.100211 -2.0095
1202 2 1.53564 19.5253 3.4652 -0.915489 3.17444 -2.55109
1265 1 3.47161 21.1917 3.59392 -3.00771 -1.53714 -3.42603
361 1 -0.0159727 21.1264 0.0468154 -3.8896 1.0665 1.78411
302 1 1.65728 19.518 -0.0352044 -1.67947 4.8351 -0.0925226
365 2 3.74801 21.096 -0.0412329 -0.187991 1.78204 0.151906
311 1 7.24416 19.4077 1.75319 -3.57009 2.89103 -0.0201207
368 3 5.45871 21.2474 1.65459 -5.19482 -3.41722 -5.70369
1206 2 5.40279 19.4988 3.62693 1.22933 3.09604 -3.05681
1269 1 7.09687 21.1421 3.51456 -1.65172 0.651659 -0.152243
306 2 5.35464 19.2506 -0.0275141 3.25767 3.67733 1.42682
1210 2 9.02031 19.5145 3.45209 -0.237677 4.89006 -6.15969
372 1 9.00484 21.2999 1.82796 2.24839 4.79951 -3.30544
315 2 10.5859 19.5611 1.76058 0.322607 -2.47554 8.55963
376 1 12.3367 21.5239 1.86463 -3.09553 2.32311 0.787265
1214 2 12.4047 19.5769 3.53324 4.18152 0.364554 3.06985
1273 1 10.7912 21.6069 3.64381 0.251666 -0.833741 -2.76228
314 3 12.4538 19.4278 -0.0388943 0.70461 1.27321 -1.88254
373 2 10.9104 21.4979 -0.0238135 -1.49943 -0.030041 -0.0412339
319 1 14.375 19.487 1.71559 3.25157 1.56534 0.494865
380 2 16.0174 21.2805 1.52734 4.33873 -1.86675 -4.70397
1218 2 16.0551 19.5527 3.48601 -1.40115 0.516958 3.38311
1277 1 14.266 21.4816 3.49277 -3.02866 3.62707 -1.94743
377 2 14.1498 21.1611 0.0286134 1.01472 -2.1359 -0.393445
1281 1 17.6353 21.322 3.60905 -0.288289 3.23618 2.49165
323 3 17.9632 19.4266 1.73078 3.5332 -2.97987 0.941163
327 3 21.4579 19.5489 1.59216 -0.189594 -3.1619 1.68041
384 1 19.4682 21.544 1.67409 0.493204 2.24711 -3.63082
1222 3 19.8408 19.5574 3.45984 1.6445 0.675795 1.53767
1285 3 21.521 21.4264 3.45141 4.69663 -3.31921 1.44416
385 3 21.3702 21.4352 -0.0629877 -0.290473 -0.217682 0.939396
322 3 19.613 19.6028 -0.0669104 1.05397 0.468885 2.84348
328 1 23.2 17.886 1.74253 0.70375 0.36354 1.32054
331 3 25.0578 19.5375 1.56471 -3.51362 -1.55403 0.500825
388 3 23.2872 21.3295 1.70576 -3.3612 3.11228 5.23019
1226 2 23.0903 19.4221 3.34211 -4.99294 -6.84357 -0.5884
1289 3 25.0949 21.1094 3.45157 2.30585 0.666383 4.67924
389 3 25.1721 21.4298 -0.0369115 1.37031 0.424991 -0.125931
367 2 3.44092 22.9301 1.76839 -1.01135 1.29981 4.75857
424 3 1.70252 24.7888 1.83417 -3.94758 2.36987 -2.82866
1262 1 1.68597 22.9189 3.40196 3.30738 1.90611 5.07687
1325 3 3.62413 24.7617 3.52247 0.200755 2.00877 0.238501
427 3 3.51443 26.7064 1.74246 4.88628 -1.45085 2.3721
1321 3 0.00644931 24.7887 3.67751 2.32033 0.726598 -4.18379
1322 2 1.73703 26.6362 3.56806 1.23428 3.59462 1.27751
422 3 1.78483 26.6596 -0.0481261 -0.860387 -0.866539 -1.46603
425 2 3.5907 24.9132 0.00900655 1.08463 2.47542 1.79969
371 2 7.2931 23.0575 1.68125 0.057139 0.659205 2.2328
428 3 5.35348 24.7911 1.8463 -2.97367 -1.9469 -0.885108
1266 3 5.41783 23.1558 3.59588 -4.15144 -2.52181 2.20562
1329 3 7.11338 24.8161 3.57476 -1.89239 -1.43345 -1.71863
1326 3 5.29872 26.552 3.52704 0.767501 -2.76619 2.89776
431 3 7.10604 26.5938 1.76679 -1.63143 -0.978271 -1.64301
426 3 5.34566 26.5809 -0.0770391 4.23984 1.30631 0.526417
366 1 5.28249 23.0535 0.0482242 2.94388 4.64476 3.08773
432 1 8.82451 24.7371 1.80322 -3.0774 1.8203 -2.61967
435 2 10.8837 26.6341 1.88654 -1.08893 -3.99928 -3.34459
1270 2 8.86601 23.1207 3.68403 -1.00688 -1.39337 -2.04653
1334 2 12.452 26.6859 3.71202 1.10661 2.12547 -0.593952
1330 2 8.87223 26.4443 3.39024 -1.1017 -0.375408 1.80567
375 2 10.5934 23.1841 1.94777 -2.15554 -0.936043 0.179516
436 1 12.6068 24.9572 1.75844 0.9967 -3.13895 1.22141
1274 2 12.5462 23.1026 3.59581 -1.9854 0.703907 -2.2821
1333 1 10.7899 24.8087 3.51363 0.620031 2.26996 2.37651
433 2 10.7705 24.7601 -0.0202559 0.45821 -0.0298692 -1.9557
374 3 12.7095 23.1687 0.0398147 -1.97802 -1.26424 1.37572
430 3 9.01616 26.5224 -0.0387409 1.23241 -0.280396 -5.25688
434 1 12.5215 26.5929 -0.0356264 1.3484 4.60349 2.63088
379 2 14.4662 23.0288 1.80599 -2.37965 -6.84877 -0.309826
440 1 15.9764 24.8424 1.63481 1.3342 -5.21078 -4.75524
1278 1 16.2223 23.1406 3.67376 3.93442 2.96414 -0.0394468
1337 1 14.3573 24.8079 3.46702 2.45236 -0.339678 0.00162667
383 2 17.6198 23.0909 1.59262 -0.707612 2.07578 3.63509
1338 2 16.0337 26.6653 3.62783 -1.46891 0.161165 -2.17391
443 3 17.6981 26.7268 1.76679 2.87142 -1.91049 -2.25222
1341 2 17.8587 25.0134 3.66773 -1.49901 4.17234 -1.29715
387 3 21.4999 23.1236 1.79831 -3.30703 1.11875 2.01467
444 3 19.5208 24.8986 1.75387 2.47771 1.004 1.57094
1282 3 19.4239 23.0634 3.57279 -4.58121 3.28269 -1.63043
1345 3 21.47 24.9906 3.53169 -0.0792319 7.69183 -0.690401
1342 3 19.4774 26.6838 3.53624 -1.82556 2.2371 -1.7799
447 3 21.4042 26.6898 1.59349 -2.3367 2.14474 -8.3101
445 3 21.4625 24.9222 -0.0430055 1.07219 -2.76399 -0.293413
382 2 19.6321 23.1122 0.0341346 2.06658 -2.74479 -1.08209
451 2 25.1492 26.675 1.7357 1.41042 -5.01734 1.74817
391 3 25.2456 23.0989 1.73007 -1.3442 4.94752 2.37703
448 3 23.189 24.8314 1.85636 -1.49158 -5.95221 -3.01341
1286 3 23.2365 23.043 3.51585 -2.09704 2.30578 2.75202
1349 3 25.0758 24.9307 3.37063 -3.99104 0.830293 0.62212
386 3 23.3774 23.2079 -0.0475503 3.15134 2.69122 1.90975
1346 3 23.2705 26.7662 3.61369 -0.914091 3.79809 -1.1133
449 3 25.0819 24.7945 0.00572107 -6.63907 -2.06747 -0.1693
1350 3 26.7412 26.7076 3.55786 3.71381 2.61061 -1.49926
446 1 23.4785 26.743 0.138978 1.7813 -2.70005 -2.33049
907 2 3.47919 1.79584 5.39224 -2.84617 -5.91994 -2.81159
964 1 1.52268 3.38343 5.40355 -0.323622 1.56515 -0.911304
1802 2 1.75562 1.58635 7.15494 3.57768 4.85239 -6.49142
1865 1 3.33836 3.41585 7.00615 -4.39025 2.91187 2.75964
903 1 0.144156 1.4081 5.25688 -0.910889 -4.88951 1.85428
911 2 7.20841 1.37714 5.31973 -0.115258 0.614954 2.57149
968 1 5.43888 3.4663 5.21456 2.46618 -1.42684 -2.78102
1806 2 5.16368 1.75767 6.94835 2.45552 0.929989 4.22642
1869 1 7.03523 3.53554 6.97538 5.03435 2.76461 0.229439
1868 2 5.27789 3.33809 8.77406 0.576175 2.16755 -2.53391
972 2 8.76473 3.58203 5.28002 1.62464 3.24991 -0.805417
1809 1 7.0059 -0.077388 7.25517 -0.245528 -0.200671 1.17713
1810 1 8.90514 1.62058 7.20467 2.66958 0.178459 -0.923684
915 1 10.7396 1.55349 5.53792 1.30346 -1.7786 -3.11211
976 2 12.6215 3.52289 5.38524 1.79099 -2.92935 -2.0991
1814 2 12.3034 1.62395 7.11791 -0.676122 3.2922 -2.13758
1873 1 10.7067 3.49158 7.02918 -3.13496 1.10714 -1.10508
919 1 14.305 1.61643 5.4604 1.70203 -1.33939 2.29942
980 2 16.0509 3.26643 5.53421 -1.31807 2.84094 1.86995
1818 2 16.221 1.32285 7.25895 3.75107 1.95489 0.145363
1877 1 14.1561 3.23738 7.14511 -0.412676 -4.2769 0.310825
1819 3 14.3031 1.48006 8.87235 1.17749 0.689519 2.80399
923 1 17.79 1.54673 5.38359 0.067946 0.967526 -2.21328
1881 3 17.927 3.3859 7.15967 -1.97624 -1.53811 4.06912
927 1 21.3807 1.66951 5.32262 0.602068 2.50681 -1.15321
984 3 19.4483 3.49527 5.53765 0.531081 -3.921 4.73831
1822 2 19.8062 1.5035 6.99252 -3.96871 -1.7961 1.06405
1885 3 21.4942 3.38321 7.13947 -4.40508 0.428864 0.837773
1827 3 21.6064 1.65839 8.78896 3.81028 -0.427503 1.33744
1823 3 18.096 1.57478 8.7801 1.08313 -8.30053 -5.17553
931 3 25.0244 1.61096 5.32028 -5.39404 1.78777 -1.7453
988 3 23.0735 3.2987 5.3442 -0.477855 -1.22957 3.76983
1826 3 23.2861 1.53497 7.05809 -1.49744 0.54761 3.43933
1889 2 24.9397 3.52897 7.0892 1.79545 -1.32549 -1.93966
1831 3 25.0415 1.64712 8.77838 -0.887394 -1.90427 -4.254
1888 3 23.2847 3.44098 8.81996 3.86247 -4.53098 -2.83876
928 2 23.3066 -0.0593865 5.25135 5.21666 0.333205 2.84275
1921 1 0.00462781 6.93563 7.08208 -0.775201 -1.51175 -5.57999
967 2 3.48313 5.19813 5.21477 -5.86514 -0.486034 -4.39293
1024 1 1.65331 7.14754 5.3656 -0.524372 -1.82773 1.70756
1862 2 1.35426 5.05732 7.01898 2.61199 -1.41632 1.85346
1925 3 3.48941 7.0451 7.09581 -1.56497 0.246142 -3.54773
1027 1 3.54375 8.762 5.29065 1.43984 -2.15796 -1.43981
1867 3 3.46553 5.13566 8.70607 1.7458 -0.135542 -0.426062
1924 2 1.65893 7.04792 8.68258 0.274849 -2.34828 -1.44604
963 1 -0.0755169 5.09501 5.21247 0.960104 -1.06512 -4.31028
971 1 7.19319 5.26444 5.22558 -2.20254 1.18742 3.61396
1028 3 5.22865 7.01787 5.17852 -4.69714 1.61315 1.85746
1866 2 5.35263 5.24833 7.11512 1.00867 2.48044 -0.202451
1929 3 7.03781 6.99201 7.11009 2.74684 -0.232911 0.199869
1031 3 7.16029 8.78249 5.21932 -5.29498 1.67322 3.22061
1926 3 5.33443 8.67871 7.11029 0.950635 -0.423877 0.86397
1870 3 8.71076 5.18361 7.10997 -2.60333 -2.36225 2.95193
1032 3 8.93104 7.01759 5.55217 -1.2824 5.52508 1.12745
1930 3 8.88843 8.83533 7.13009 -3.93306 1.67538 -2.47234
975 2 10.574 5.21459 5.29022 -0.338756 1.48315 1.55197
1036 2 12.4329 6.93501 5.34312 -6.88898 -1.85071 -4.64303
1874 1 12.4641 5.04149 7.14731 -1.94176 1.61235 -0.82447
1933 1 10.8871 6.79623 7.17814 -5.65862 1.50363 -2.0362
1934 2 12.3996 8.57069 7.19879 0.456111 2.83259 2.19062
1035 1 10.6839 8.76006 5.29981 3.09728 -3.00223 0.197403
979 1 14.3752 5.14144 5.4475 -0.0629595 3.11393 -2.74604
1040 3 15.9585 6.86325 5.35093 -0.107868 0.952862 -0.234325
1878 2 15.9674 5.20392 7.2486 2.87752 2.25591 1.33316
1937 2 14.2423 6.97423 7.27764 -1.44583 -4.86721 -0.652379
1039 1 14.1485 8.75264 5.47442 -1.498 1.99861 -3.29725
1043 1 17.6613 8.81358 5.25664 4.88029 -1.40689 -1.99191
1940 1 16.1372 6.94695 8.68052 3.17715 -0.46922 -1.76441
983 1 17.6394 5.24205 5.34651 -1.83062 -0.266313 -1.09788
1941 2 17.9306 7.1151 7.14576 -5.20157 2.38774 -2.44787
987 3 21.4351 5.11119 5.48678 6.38986 -0.683986 5.08818
1044 3 19.551 6.89175 5.45752 -1.84426 -3.17704 1.6153
1882 3 19.7524 5.18259 7.19596 0.719068 1.2306 -3.93065
1945 3 21.3718 7.00892 6.99578 -1.81875 -0.556151 -1.49326
1047 3 21.4763 8.80584 5.33783 2.18695 -3.10271 1.30328
1942 3 19.7204 8.76722 7.06378 1.73119 1.44512 3.22562
1883 3 17.9363 5.21049 8.79727 1.32779 3.32311 -3.24411
991 3 25.1044 5.23283 5.30246 -0.191753 3.30634 -0.629887
1048 3 23.3809 6.95849 5.40956 0.875495 4.82048 2.50685
1886 3 23.1406 5.16285 7.07852 -0.925782 -4.541 -1.45953
1949 2 25.1358 6.84406 7.17358 -0.153599 1.89932 -3.48965
1051 3 24.9462 8.73063 5.31191 3.7969 -1.4169 4.7733
1946 3 23.3623 8.75315 7.10775 2.48314 0.537391 -2.7886
1023 2 0.0379359 8.88461 5.5146 0.110465 3.56971 3.96668
1923 2 0.0632529 8.87563 8.71828 -2.10728 0.0401905 -1.95927
1922 3 1.79126 8.94596 7.09951 0.247518 -4.59841 -0.762069
1084 3 1.90043 10.6683 5.22387 -1.34357 1.81642 -1.26563
1087 3 3.56131 12.5802 5.18173 -0.891982 -0.683052 -3.79879
1982 1 1.71177 12.4416 7.29526 2.12446 -1.39747 1.47306
1985 3 3.44661 10.6172 6.94909 0.597932 -2.32691 4.76585
1083 3 0.0104734 12.417 5.41662 -0.666808 -3.53665 5.72616
1987 3 3.5081 12.4601 8.72391 1.27192 -0.251525 2.36084
1981 1 -0.0685624 10.5539 7.13845 -4.78211 -3.91804 0.165059
1088 3 5.30276 10.6266 5.23757 0.354207 3.02634 0.916253
1091 2 7.16121 12.3291 5.2879 -2.89578 4.27121 0.0114725
1986 3 5.29686 12.448 7.11183 -4.37075 -1.8609 -2.67699
1989 3 6.98755 10.576 6.92349 7.51229 -1.76107 2.15675
1991 3 7.18707 12.3978 8.85724 2.44601 3.36607 4.92848
1988 3 5.14077 10.5931 8.66526 -0.0204128 1.01878 -3.59007
1092 3 8.97657 10.621 5.42689 -1.61215 2.27874 -1.41474
1990 3 9.0124 12.2976 7.03272 0.278315 -0.0602985 0.742019
1095 1 10.7571 12.3589 5.33194 -1.45959 -1.94488 -0.831622
1096 1 12.4245 10.4759 5.3674 0.480224 0.445272 -1.46805
1993 2 10.9145 10.3732 7.40703 -1.14939 -0.539957 -3.10659
1994 1 12.487 12.3183 7.32151 -2.71373 4.70303 0.791147
1938 3 15.9091 8.95865 7.03728 -1.70365 -3.60365 -0.685117
1099 2 14.1992 12.3289 5.44213 -0.501955 -0.398963 -4.67099
1100 1 16.1846 10.5744 5.46103 4.71566 5.04572 3.71426
1997 2 14.3293 10.6145 7.11057 6.23724 -6.30586 6.38917
1998 1 16.1995 12.283 7.2415 -1.086 1.67944 2.11687
1103 2 17.815 12.2458 5.24666 5.70717 -0.555033 -1.35998
1943 3 17.8136 8.95222 8.68298 -3.11404 0.275682 -1.11834
2001 3 17.9238 10.667 7.12127 1.5199 3.22287 5.36927
1104 3 19.8002 10.485 5.41625 0.329333 6.89821 5.90703
1107 2 21.6286 12.4666 5.34074 -0.97278 2.24528 -1.12429
2002 3 19.9104 12.4647 7.14231 -3.31644 -1.35159 0.513375
2005 3 21.5425 10.6199 7.11685 -1.07153 -1.35614 4.82503
1108 3 23.3631 10.608 5.472 -1.83673 -1.88521 3.39626
1111 1 25.008 12.4186 5.37741 0.10176 -1.00599 -0.172875
2006 2 23.2794 12.4081 7.17295 -3.30543 -5.79936 -3.93597
2009 3 25.0618 10.5388 7.16285 2.85126 0.517161 1.98454
2008 3 23.31 10.8027 8.87114 -0.309947 -6.91061 2.82622
1144 3 1.85344 14.1197 5.32866 -0.80343 2.44973 1.00501
1147 3 3.63976 15.9631 5.36881 -2.25674 0.88903 0.566778
2042 3 1.69265 15.9086 6.96803 -0.765306 1.10101 -3.47448
2045 3 3.72354 14.2414 7.08687 1.50816 3.40204 3.13069
1143 2 -0.0741924 16.1895 5.30917 -2.92828 0.951791 -0.731785
2101 2 0.0899324 17.7744 7.04573 6.8177 2.48049 -4.89508
2043 1 -0.00802978 16.0517 8.83789 -0.0483057 1.81916 -2.51558
2105 2 3.62226 17.7956 6.97615 -2.50705 -4.34194 4.26889
1148 3 5.60126 14.109 5.23856 -1.91335 2.45366 -1.53568
1151 1 7.16625 15.9819 5.24022 -2.97543 0.136405 0.363494
2046 2 5.53446 15.9869 7.13947 5.06739 3.14871 0.32679
2049 3 7.26787 14.118 6.97869 -2.15273 -2.57362 -4.62078
2051 2 7.13484 16.111 8.81486 1.88392 0.371082 3.14228
1152 2 8.95788 14.0976 5.2026 2.34649 -0.533673 0.020712
2050 1 8.95108 16.0337 7.13089 -3.28623 -5.03575 1.82823
1212 1 8.90166 17.784 5.36768 -0.0289639 2.44385 3.87321
1155 2 10.5623 15.779 5.32598 2.48514 0.184766 2.52806
1156 1 12.36 14.1164 5.45752 1.85611 -4.3599 2.5306
2053 2 10.7 14.2304 7.13888 -0.48457 -3.66249 3.27061
2054 1 12.584 16.0532 7.38318 2.06575 -0.746994 2.16059
1216 3 12.622 17.6003 5.39868 5.51345 0.112214 -5.48456
2056 2 12.2882 13.8978 8.83544 5.22481 -1.29806 -0.8503
1159 2 14.1956 15.8029 5.27736 -7.16145 -3.1988 1.38824
1160 1 15.8911 14.0553 5.29605 -1.71625 0.45652 -0.87834
2057 1 13.9752 14.009 7.20567 0.582051 4.2716 1.47289
2058 1 15.9088 15.7467 6.91359 1.66082 6.58186 1.00164
2117 3 14.3224 17.6797 7.01217 -4.24412 0.0324296 0.505082
1220 1 16.0032 17.6749 5.25704 -2.9762 0.738583 -0.310505
2061 2 17.7248 14.0446 7.02734 -0.179006 6.41009 4.89515
1163 2 17.9406 15.9374 5.27176 4.23917 2.44076 -2.19352
2121 2 17.9806 17.5077 6.98747 -2.39727 4.16608 -3.37339
1164 1 19.7101 14.2012 5.26737 -2.98903 0.805175 -2.04194
1167 2 21.4877 16.0249 5.24955 -2.71951 -2.48698 0.20542
2062 1 19.6423 15.9123 7.1787 -2.13135 0.106672 1.58411
2065 2 21.4556 14.2105 6.89992 -1.97354 3.09421 2.18994
1224 1 19.6867 17.7164 5.02489 -0.592698 4.45574 1.66847
2063 1 17.8604 15.9167 8.78643 -7.80573 -2.03093 -1.62735
2067 3 21.5413 15.8199 8.7811 2.11477 -5.24719 -2.22043
1168 1 23.15 14.2025 5.31986 -0.71501 -0.714704 3.08735
1171 1 25.0151 15.8122 5.11492 -4.98929 -2.90995 0.546186
2066 1 23.2699 15.8226 7.01371 -2.44241 0.520544 -4.25482
2069 2 25.1885 13.8723 7.1451 -6.249 -2.99311 -3.28831
2129 2 24.9302 17.5925 7.00152 0.183943 5.14065 -2.97658
2128 1 23.3612 17.6337 8.64608 0.386692 -2.63746 3.62757
2070 2 26.7627 15.8619 7.08259 5.53658 -0.725601 0.442696
2068 3 23.4019 14.1483 8.74376 -5.39726 4.52828 1.31897
1228 2 23.1146 17.7496 5.29173 3.14728 -3.84033 3.1751
1204 1 1.76235 17.9758 5.0507 4.49858 -1.77653 -2.15133
2161 1 0.0691481 21.3588 7.19107 1.03153 -0.154603 3.34697
1207 1 3.39862 19.6774 5.36381 1.48518 -3.35432 4.33547
1264 2 1.62685 21.6118 5.33087 5.09874 -3.67983 -2.45544
2102 1 1.67122 19.4019 7.19064 1.75825 1.42129 -1.49153
2165 1 3.49372 21.3445 7.22364 -4.14031 -0.812372 3.12546
1208 1 5.34393 17.8382 5.31098 2.40045 2.18946 0.235708
2109 2 7.10689 17.8394 7.23511 1.43367 -3.30324 -3.47159
1211 1 7.29761 19.5829 5.44704 -0.472116 1.49375 -4.62718
1268 2 5.33436 21.0867 5.26625 1.67854 -0.592178 1.72617
2106 1 5.31472 19.6624 7.15815 -2.01267 -1.53442 1.70617
2169 2 7.25498 21.104 7.19392 -2.53917 0.468114 1.39166
2108 1 5.38642 17.9318 8.74796 -1.45078 -1.25919 1.77721
2111 1 7.1409 19.4514 8.86471 2.02152 0.502469 2.34501
2113 2 10.6626 17.8214 7.15573 2.34571 -3.18465 2.26893
2110 1 9.17643 19.45 7.15577 -2.66782 2.64751 2.54995
1272 2 9.03316 21.2877 5.26863 -0.188192 1.85072 -2.77603
1215 1 10.8689 19.4829 5.28898 -4.41083 -1.77484 3.6211
1276 1 12.4695 21.2461 5.33797 -1.64029 -0.410023 1.52945
2114 3 12.531 19.3472 7.18567 3.39165 -1.42596 1.32892
2173 3 10.8757 21.1982 7.22826 -0.635888 -6.76326 0.248936
1219 2 14.3258 19.6463 5.24299 -2.21935 -3.35119 -0.00557231
1280 1 16.162 21.2873 5.40455 -1.71696 -4.67199 0.411449
2118 3 16.2819 19.3119 7.00346 0.379926 -0.629308 0.731293
2177 3 14.1596 21.2192 7.11892 1.52506 -0.226314 -2.48136
2180 2 16.2692 21.2343 8.81296 1.31729 -1.19647 -2.858
1223 2 17.8843 19.6221 5.1971 3.85649 3.28114 -0.0905955
2125 1 21.5107 17.8179 7.21568 1.96676 -3.20486 -3.56764
2181 1 17.9875 21.3956 7.11836 -1.50107 4.43481 0.00287176
1227 2 21.4575 19.6622 5.2653 3.00013 0.74997 -0.927475
1284 3 19.6643 21.212 5.28666 -1.72758 -1.20499 1.21806
2122 1 19.753 19.3585 6.98641 -1.28614 0.43684 -0.0169257
2185 2 21.4071 21.2314 7.07899 2.52824 -6.80293 -3.46428
2184 2 19.6365 21.2814 8.74191 0.534816 -1.40435 -0.00143068
2123 3 17.8342 19.6089 8.71908 -5.6721 -4.91411 -3.62877
2127 2 21.4223 19.3636 8.85672 -2.54428 -1.08401 -3.15719
1231 3 25.0136 19.3317 5.23249 -0.280547 1.38372 1.40887
1288 3 23.3658 21.1856 5.15622 3.20234 0.979797 -1.3712
2126 1 23.2471 19.3649 6.93851 4.26459 -3.72123 5.2515
2189 2 25.0163 21.098 7.07867 1.88317 -6.39209 2.00716
2131 2 25.0915 19.3344 8.83151 5.28125 -0.724511 2.30155
2188 1 23.5038 21.2024 8.66975 -0.235067 -0.44064 -0.856263
2130 1 26.7248 19.3868 6.94143 -1.59843 -0.836359 2.14208
2222 3 1.73072 26.6658 7.12954 2.88431 -1.12795 0.131294
1267 3 3.63944 22.923 5.15986 3.97963 -0.886094 -0.816086
1324 3 1.84458 24.5854 5.4168 -0.8567 -3.35318 -1.30062
2162 3 1.63187 23.1553 7.35294 2.07611 -5.10319 -1.81172
2225 2 3.5487 24.8254 7.25092 2.42989 -1.44196 2.65899
1327 3 3.51793 26.6205 5.20554 -1.42978 -1.81697 -4.70907
2221 2 0.0835267 25.0055 7.2448 -3.77028 3.64475 1.48353
1271 1 7.23213 22.6998 5.60128 1.58232 -2.90776 -2.28689
1328 3 5.40696 24.7733 5.4071 -1.83323 2.89243 -4.35383
2166 3 5.46407 22.9909 7.18045 -3.4876 -3.9996 0.659623
2229 3 7.13739 24.7984 7.20172 -0.71817 1.56344 -1.50756
1331 3 7.19316 26.5382 5.31078 2.65941 0.435056 -4.61872
2226 3 5.45974 26.6451 7.0552 -1.84379 2.98213 -0.129007
2171 3 7.23222 22.9466 8.82274 0.523743 -3.84889 1.13596
2234 1 12.7203 26.6774 7.00978 -2.72571 -3.72572 2.09479
2170 3 9.06133 23.02 7.1561 -1.55796 -1.85753 1.61915
2230 3 8.87096 26.6798 7.06199 -0.0485051 4.11232 -4.70452
1332 3 8.89206 24.8319 5.34697 1.48802 0.051925 -0.517677