ITEM: TIMESTEP
71400
ITEM: NUMBER OF ATOMS
13500
ITEM: BOX BOUNDS pp pp pp
-7.9760778240288488e-02 5.3599760778229751e+01
-7.9760778240288488e-02 5.3599760778229751e+01
-7.9760778240288488e-02 5.3599760778229751e+01
ITEM: ATOMS id type x y z vx vy vz
7 3 3.42033 1.63189 1.73773 -2.08751 1.32761 -2.45492
64 1 1.86137 3.52527 1.68026 3.10752 3.32864 2.2579
902 2 1.59316 1.65944 3.4218 -2.30207 -5.37695 0.671542
965 1 3.32947 3.40625 3.6061 2.12918 4.16946 -0.708082
905 1 3.39979 -0.0178492 3.46173 -2.2199 -0.829076 -1.11676
61 2 0.094608 3.42006 0.0585503 -0.962871 -1.56089 2.44482
961 2 -0.0652926 3.5445 3.46359 2.38135 2.42127 2.56961
11 1 7.31388 1.60797 1.63365 -0.41972 -3.72465 1.37725
68 2 5.23335 3.34756 1.74569 -2.19302 2.49831 2.82621
906 2 5.47601 1.91051 3.45458 0.309838 1.83993 2.62256
969 2 7.10968 3.62162 3.40108 -2.05002 2.57587 0.397184
8 2 5.45126 0.0513248 1.55057 -2.99413 0.0947988 5.99649
69 3 7.18135 3.41676 -0.0616717 0.886786 -3.8855 -0.506429
910 1 8.90093 1.61665 3.32544 6.29215 -1.55778 0.0894688
72 2 9.10676 3.49194 1.73442 -2.1803 2.52256 -4.15735
15 1 10.7409 1.56251 1.53678 -7.30028 5.86081 -1.00274
76 2 12.6018 3.40506 1.64473 -0.0173062 6.02422 0.687087
914 2 12.6855 1.81969 3.45813 -5.62592 1.03597 0.65921
973 1 10.7929 3.48527 3.52372 3.48145 2.75679 3.79064
12 2 8.95663 -0.0817378 1.84098 1.49863 -1.43147 3.07279
913 2 10.9815 -0.0177436 3.44477 -2.64978 -0.54744 -3.18554
16 1 12.648 -0.0506336 1.71513 2.5133 2.51229 3.41784
19 1 14.3999 1.58843 1.59033 1.57529 -3.3791 5.4993
80 2 15.9878 3.33531 1.55456 -1.64839 2.63713 2.93064
918 1 16.168 1.59795 3.68889 -0.560107 1.80669 -1.19868
977 2 14.6012 3.57134 3.56488 0.345029 0.605892 2.73591
981 2 17.6145 3.50986 3.43317 2.17511 1.95122 3.88156
81 1 17.8827 3.35265 -0.01013 2.39215 -0.528747 1.68636
23 1 17.9483 1.58563 1.91012 0.546762 -1.09354 0.422083
27 1 21.3677 1.92877 1.6709 2.91365 1.51221 -0.216725
84 1 19.5922 3.49466 1.73611 -2.76794 2.3634 0.520277
922 2 19.7002 1.87274 3.48795 1.21562 2.63617 -3.57715
985 2 21.6373 3.56452 3.50259 0.0824886 2.28728 2.27371
925 2 21.2441 -0.0293142 3.37124 -6.58751 -2.40669 4.51187
24 3 19.8165 -0.0587207 1.62847 -4.63836 -0.346398 4.2011
22 2 19.6432 1.66423 -0.048047 -1.07933 3.93357 1.42537
31 3 25.1053 1.72618 1.8205 1.13886 3.13459 -2.21073
88 1 23.1797 3.50829 1.68817 2.07698 -0.170801 0.536917
926 3 23.3048 1.79825 3.36041 -0.398773 3.90374 1.19093
989 3 25.1091 3.55081 3.49498 0.740325 -4.14747 5.43311
26 3 23.2594 1.64474 0.0281424 1.65282 -1.91375 -0.568855
92 3 26.6531 3.42446 1.64712 3.26503 0.866724 6.09648
28 2 23.1918 -0.0624142 1.72954 -0.975457 1.39232 5.42758
67 1 3.48384 5.18758 1.59091 1.30555 -0.0545909 0.1605
124 2 1.84303 6.88503 1.62128 -1.24128 0.332533 6.21139
962 2 1.66052 5.24306 3.59111 1.05555 -2.71528 1.01649
1025 2 3.49369 6.78887 3.6203 0.587738 -0.327236 -1.88592
1022 1 1.76009 8.744 3.63099 -3.35158 -2.02723 2.54742
127 2 3.47394 8.72191 1.73993 -3.74531 3.22871 -1.60675
63 1 -0.0184152 5.17175 1.60639 1.8421 4.45083 0.811764
121 1 -0.0293823 6.90192 0.0369839 4.95514 -5.15338 -1.354
71 3 7.03291 5.30696 1.89209 -0.712442 2.63742 -4.2261
128 3 5.39117 7.00731 1.73569 -1.11325 4.77728 -3.42079
966 1 5.16344 5.09928 3.22682 0.645733 -0.810628 6.90872
1029 3 7.09465 6.97428 3.59409 -1.5984 -2.53752 -4.47835
1026 3 5.17886 8.52258 3.54507 0.804344 0.736108 -1.57233
131 3 7.24771 8.81185 1.75687 -2.54627 -0.765087 -3.58703
129 3 7.32088 7.12235 0.0904615 0.365999 4.34549 -3.11009
66 2 5.5079 5.0182 0.137362 1.29725 -0.924509 1.13564
126 3 5.49541 8.75692 0.109381 -4.24997 2.85769 2.05653
970 3 9.10226 5.28666 3.63182 6.58116 -2.78265 4.72597
132 2 9.19704 7.05505 1.69858 -0.436714 2.45266 3.98236
75 1 10.8687 5.30668 1.72993 5.73158 -0.236651 3.21311
136 2 12.6216 7.15061 1.63497 -1.76723 -1.60864 -1.97207
974 1 12.6854 4.99409 3.56667 2.37672 -1.16438 3.09865
1033 1 10.9662 7.10582 3.3761 -5.96361 -0.294614 1.94764
1030 3 9.01199 8.71322 3.52577 2.6981 3.70989 6.52182
70 3 8.97695 5.24919 -0.0639 2.65722 0.658387 0.620283
1034 1 12.6012 8.73479 3.57327 0.139593 -3.72056 1.41164
79 1 14.346 5.0122 1.66633 -2.69507 4.64024 -1.10392
140 1 16.0421 6.98493 1.44196 0.944147 -2.75438 3.66798
978 1 16.0321 5.38872 3.49231 -0.00359845 -2.26656 0.877735
1037 2 14.453 7.0544 3.55378 5.15024 1.20874 -1.27309
83 2 17.8092 5.39171 1.67472 4.47579 4.41006 -2.66399
139 1 14.597 8.7163 1.79337 3.8388 -2.16519 0.251424
143 3 17.9034 8.80897 1.70325 -3.20392 -0.894177 0.625589
1041 3 17.8888 7.1084 3.47733 -0.992494 -4.83879 2.2103
87 1 21.3957 5.34939 1.66794 4.09021 -0.606289 0.606341
144 2 19.601 6.95495 1.77611 -4.91498 4.52778 -0.0333126
982 1 19.6879 5.24893 3.38108 0.0124125 -4.04421 -1.3918
1045 3 21.2921 7.07351 3.6135 1.08523 -1.44804 1.39441
147 3 21.4566 8.7959 1.76519 -1.07317 1.69993 4.67822
82 3 19.4926 5.26519 -0.0345295 0.126205 0.462915 -2.71756
145 3 21.4177 7.02596 -0.0660658 1.65745 0.205103 -3.53082
91 3 25.018 5.37538 1.75306 -1.32452 1.44357 3.34014
148 3 23.3034 7.00835 1.70596 1.9633 -0.887687 -1.61131
986 3 23.1959 5.24646 3.37299 4.74553 0.559001 -4.97838
1049 3 25.1825 6.91246 3.4264 -0.576579 4.19754 1.45035
151 1 24.9061 8.70725 1.65804 -2.42721 1.98093 -0.0651821
1046 3 23.0982 8.71017 3.60554 0.594192 4.2172 7.05196
150 2 26.5121 8.59846 0.111127 4.73923 -5.23425 4.73699
149 1 25.0264 6.90724 -0.0502768 1.20477 -2.71171 -0.504414
184 3 1.82703 10.5981 1.86347 -0.187991 -1.54303 -2.0864
187 3 3.47526 12.2998 1.97594 3.37438 3.98542 -5.88964
1082 3 1.81005 12.3843 3.77962 -4.78332 -4.77295 4.03445
1085 2 3.55531 10.4116 3.59542 -0.934136 -4.14539 0.0422466
182 1 1.64643 12.1742 0.00895684 -1.01882 0.600291 -3.75628
185 2 3.68106 10.7309 -0.0661331 -1.16091 5.31425 -2.47741
181 2 -0.0531312 10.5268 0.101335 -3.00333 2.96683 -5.91228
1081 3 0.0084224 10.5993 3.49074 -4.5 0.959669 -1.15473
183 2 0.00309467 12.3611 1.84326 5.37311 7.96982 5.42762
188 3 5.31119 10.3434 1.85952 0.564666 0.257903 1.18663
191 2 7.25697 12.0989 1.71613 5.96586 -0.967495 2.72796
1086 3 5.42805 12.3021 3.65978 -2.86421 0.206882 3.61281
1089 3 7.16498 10.4722 3.58609 -0.33441 -1.34314 -1.48048
186 1 5.57455 12.1563 0.121735 -1.06037 2.3826 -2.73182
135 2 10.8407 8.92006 1.84533 1.1811 -0.60476 0.288712
1090 1 9.01497 12.4016 3.4871 -3.4945 3.46321 5.96996
192 1 8.88654 10.52 1.71045 0.0640426 0.420695 -3.64958
195 1 10.7989 12.3683 1.7668 0.381889 3.35288 -3.79627
196 1 12.7077 10.5755 1.73806 0.911729 -1.5488 -4.96125
1093 2 10.8785 10.5086 3.42592 -8.61343 2.57306 -3.72451
1094 2 12.628 12.3199 3.61274 -1.74391 0.968692 -2.1438
194 1 12.5167 12.4189 -0.0323622 0.873518 4.18392 -2.03957
193 2 10.7013 10.4797 0.000413785 4.76941 -4.55257 3.47545
190 3 9.04547 12.2375 -0.0681316 1.85165 -5.70621 2.36831
1038 2 16.2696 8.92938 3.58136 -4.77858 2.89508 0.342385
199 1 14.2944 12.3557 1.80855 -2.56555 -3.5545 -5.77598
200 3 16.2025 10.5934 1.69149 3.06254 1.14207 -0.764637
1097 2 14.3159 10.5403 3.45069 1.40007 1.32119 -3.57037
1098 1 16.0736 12.2998 3.56591 5.58802 -0.299648 -0.970586
1042 3 19.5949 8.96833 3.72702 -0.73986 5.4625 5.13409
203 3 18.0211 12.3469 1.68483 -4.16296 -1.00468 -1.47793
1101 3 17.8492 10.6481 3.37149 -1.79157 2.9264 -0.102472
204 3 19.8411 10.5492 1.73806 6.43114 -3.92176 -1.2793
207 3 21.5156 12.4755 1.84831 -3.75234 -3.55832 0.957182
1102 3 19.5745 12.2738 3.44701 0.9768 4.37021 -1.84354
1105 3 21.5242 10.6093 3.59336 -4.95438 -1.62721 2.96291
202 3 19.7166 12.1725 -0.0223098 4.95045 -0.0732521 -3.05294
208 3 23.2216 10.636 1.71968 5.22362 -0.667059 -2.4299
211 1 25.0764 12.3427 1.70746 2.50505 0.466571 -5.20631
1106 2 23.3491 12.5687 3.62344 -7.64498 -0.29613 -0.466709
1109 2 24.7978 10.6899 3.53112 2.16364 0.885265 -1.22492
212 2 26.6151 10.6981 1.81182 -0.13996 -2.58854 5.96057
244 1 1.83425 14.1805 1.86198 -1.57693 -2.58643 2.53893
247 1 3.76599 15.8179 1.78167 -1.55201 1.90734 3.97608
1142 3 1.77302 16.1573 3.57007 4.3711 -2.22651 -6.16349
1145 2 3.32528 14.1027 3.66558 -0.824608 -0.442817 2.88508
245 2 3.59883 13.9014 -0.0686262 0.890718 -0.406097 -3.18785
1205 2 3.71467 17.7161 3.56665 -2.87556 0.911903 -2.78702
242 2 1.86551 15.8416 0.0317116 -4.07923 -0.2536 -5.43374
304 1 1.82382 17.5568 1.72414 -0.757681 -0.0522297 2.43973
1141 3 -0.02615 14.1023 3.49336 0.0264543 -0.00968415 -3.70155
241 1 0.159652 14.0311 0.122775 -4.92445 2.12906 0.296944
301 1 0.0780656 17.5139 0.0534663 -0.120134 -4.09231 -1.94875
243 2 0.012144 15.7521 1.68651 1.13744 -0.204587 -0.0819519
305 2 3.47847 17.6514 -0.0602921 3.78 1.37662 3.15514
248 2 5.33991 14.032 1.9223 0.717376 0.677605 -2.65126
251 2 7.17528 15.7387 1.79648 0.797863 -0.876247 -0.996584
1146 1 5.34912 15.9033 3.52051 -2.62599 0.827283 3.06777
1149 1 7.17488 14.0216 3.3514 3.29997 2.01004 1.00266
308 3 5.42315 17.6756 1.70052 3.38368 1.40752 -1.59305
312 1 8.81462 17.4715 1.78532 -1.25579 -0.43473 -1.65388
1209 2 7.24013 17.7196 3.64947 -0.19873 -1.24291 1.80968
249 1 7.03922 14.0434 -0.039987 0.78442 -6.2209 13.5861
252 2 9.04627 14.0776 1.61868 3.9285 5.34986 4.76676
1150 2 8.96969 15.8197 3.49481 1.00922 -2.53412 0.459136
255 2 10.7797 15.9139 1.78584 -3.86185 -3.28084 -5.90066
256 2 12.6001 13.966 1.65913 3.61622 -1.16924 -1.89995
1153 1 10.9024 14.1641 3.47253 -4.48628 -1.30386 -4.4193
1154 2 12.6652 16.1981 3.55506 -3.1172 -5.45736 -0.650118
1213 1 10.6595 17.7724 3.37038 2.50351 -0.165828 0.154778
313 2 10.7503 17.5556 0.00894303 3.26006 -1.63218 -5.20059
316 1 12.5157 17.6705 1.72473 -0.259715 2.24272 -0.463201
259 3 14.348 15.8938 1.53508 3.33311 -0.498616 -6.32739
260 2 16.1887 14.1133 1.91484 3.29316 3.45722 1.62338
1157 1 14.442 14.1837 3.62734 -5.61105 -2.57686 5.28554
1158 2 16.3117 15.9974 3.58057 -0.0375643 3.94698 0.259212
320 2 16.1504 17.576 1.78895 -0.554265 1.18351 -8.69683
258 3 16.0412 16.0497 -0.0429295 -2.38954 -4.50891 4.08935
1217 1 14.3274 17.8078 3.58515 1.18089 -2.01482 -0.0115621
1161 1 17.8516 14.2835 3.63818 3.03458 0.0714818 -0.8879
263 3 17.9088 15.9018 1.72282 1.23213 4.04337 1.55473
264 2 19.6751 14.2032 1.74832 0.503009 1.95855 2.29444
267 1 21.549 15.8881 1.84296 -2.30685 3.35752 -2.03612
1162 2 19.7795 16.0858 3.61582 -4.08778 0.362148 -5.30035
1165 1 21.599 14.2423 3.71408 -1.24777 -1.92542 -1.73627
1225 1 21.4043 17.6628 3.45998 -0.475213 0.13059 -1.4239
324 2 19.7868 17.6843 1.75267 0.0324501 -0.147458 3.48809
325 2 21.7066 17.6258 -0.00938883 2.55455 -2.79454 -0.205306
265 3 21.4148 14.1025 -0.0788574 1.42492 1.96415 -4.04285
262 3 19.6098 15.8549 0.0298258 -4.27626 -0.194702 -3.34727
1221 1 17.8739 17.6265 3.56203 -3.52439 -6.82534 3.56678
268 3 23.4062 14.0941 1.83758 3.43241 -0.711439 1.40782
271 1 25.0893 15.8885 1.72489 2.61305 4.602 -0.824183
1166 2 23.4138 15.9108 3.53275 1.51562 0.766907 -1.95453
1169 2 25.0314 14.1775 3.59123 3.91167 1.64179 3.79411
328 2 23.2825 17.5773 1.72592 3.17011 -0.4901 2.11439
1229 1 24.8654 17.5545 3.41195 -3.02815 -0.932948 2.15299
329 1 24.9824 17.5174 0.161129 1.32796 6.76669 -1.08015
1170 1 26.7299 15.9169 3.75443 -3.35512 -1.21935 2.16768
1201 1 -0.00544006 17.832 3.7014 2.94001 -3.41219 1.81229
1261 1 0.0119712 21.359 3.59015 1.40591 2.41508 1.4394
307 1 3.63971 19.3135 1.62694 -0.0536967 -0.715448 8.23014
364 1 1.86857 20.888 1.58037 3.99596 -1.71679 -2.69122
1202 2 1.79402 19.3312 3.47609 0.935148 -1.51966 2.66021
1265 3 3.70044 21.2466 3.69225 3.76239 -4.46197 1.06939
303 2 -0.0319598 19.4325 1.88669 -0.182146 -4.1627 -0.127632
311 1 7.01487 19.4824 1.72995 -0.822797 -3.17709 -3.33546
368 1 5.29041 21.1847 1.73097 -2.39082 5.75666 1.21778
1206 2 5.46284 19.4094 3.56394 -0.667689 -2.2418 0.0600082
1269 1 7.02278 21.0868 3.60783 -2.90552 0.0701277 1.6614
369 2 7.18414 21.445 -0.0346603 2.0476 -0.482829 0.557252
306 2 5.47795 19.357 0.00272218 -7.64449 1.08362 0.149155
310 3 8.88205 19.6844 -0.0523429 2.01214 4.97775 -0.345382
1210 2 8.9035 19.4905 3.43956 3.23401 2.42254 -0.963675
372 1 8.88997 21.3573 1.80197 -0.898688 -0.758952 -1.93529
315 2 10.5941 19.3188 1.56702 3.26689 -0.228134 -0.385458
376 1 12.3872 21.2792 1.7585 -3.19971 0.339781 2.77105
1214 2 12.4951 19.4476 3.42248 0.0547899 4.44521 1.34196
1273 1 10.7319 21.1987 3.65129 2.08049 -3.16035 0.2298
373 2 10.6114 21.4236 0.0408093 -0.771702 0.409379 0.538181
314 3 12.6236 19.5502 -0.0741156 -0.39972 -0.411465 1.51915
319 1 14.2262 19.5378 1.93641 -2.38833 -2.26645 2.8617
380 2 16.0335 21.2299 1.97758 0.607074 -4.89682 0.0962752
1218 2 16.0913 19.3922 3.73277 -3.70535 1.89938 1.35429
1277 1 14.2839 21.3838 3.63883 3.82249 0.680091 -0.0494909
318 1 16.0003 19.4772 0.0207032 2.09787 1.84173 1.26363
377 2 14.3617 21.2015 0.257542 -0.403298 2.13457 -1.77095
1281 1 17.7625 21.5384 3.55311 -1.03317 -2.80198 -6.21407
381 2 17.7917 21.2566 0.00842405 -4.10698 2.52467 -3.39191
323 3 17.9172 19.4405 1.77021 2.7537 -0.146843 -1.6527
327 3 21.3472 19.6139 1.86653 -5.0303 0.525932 -0.211499
384 3 19.4968 21.4631 1.9245 2.89643 3.60953 -0.70859
1222 3 19.644 19.6275 3.43187 4.11404 0.479865 -1.34153
1285 3 21.4838 21.4226 3.69389 -5.12545 3.37782 2.47626
322 3 19.6746 19.5002 0.0622316 0.34443 4.15966 1.67553
385 3 21.5362 21.2092 -0.0235039 -3.58103 -0.868169 0.819902
331 3 24.9731 19.4047 1.83257 0.481218 -1.53385 -1.35588
388 3 23.2952 21.3015 1.83243 1.22174 3.63926 -3.12301
1226 2 23.2231 19.3076 3.47089 0.266815 0.58742 0.306646
1289 3 24.9924 21.3375 3.53608 -0.345824 -3.96219 3.05825
326 1 23.2478 19.4597 0.190169 -0.809509 -0.605231 -0.494731
392 3 26.7425 21.3481 1.69213 0.802922 -1.03402 1.21871
330 3 26.7205 19.3924 -0.0481938 -6.60911 -2.54953 -6.29239
367 3 3.71516 22.9796 1.70337 -3.94928 -0.437387 -2.97564
424 3 1.80481 24.7873 1.76142 0.354145 5.03048 4.32803
1262 3 1.94713 22.9338 3.45524 1.70005 5.46627 1.16165
1325 3 3.62106 24.7925 3.5699 -2.9404 1.47689 -3.63537
1321 3 -0.0466489 24.7761 3.5436 -2.27791 1.14276 -4.97333
1322 2 1.7235 26.6506 3.52666 3.0529 3.13431 -1.63903
425 2 3.50005 24.7592 0.00981059 -2.4213 -4.42567 1.76362
371 2 7.26853 23.0123 1.89663 0.517179 -1.04487 -2.42306
428 3 5.37439 24.9469 1.80664 -1.33984 1.92262 2.08726
1266 3 5.43347 23.1338 3.53205 -3.32689 -0.350457 -4.74989
1329 3 7.23897 24.9399 3.44441 -0.599937 1.83208 -1.36741
370 1 8.72865 23.2441 -0.0214053 0.366413 1.62294 1.54551
1270 2 8.82443 23.0471 3.63603 -0.211531 -4.18322 -0.0785734
429 3 7.03214 25.0126 0.0256907 -3.72538 3.24773 3.04901
366 1 5.44952 23.0382 0.0366336 -5.53364 4.07655 5.15329
1330 3 8.98034 26.7444 3.50779 2.79087 -3.2205 0.219162
435 2 10.6971 26.7605 1.71958 -0.17826 1.32053 -6.24276
432 1 8.89388 24.8931 1.76203 -5.46223 4.54262 -2.60027
375 2 10.7382 23.2007 1.74698 -0.747777 -6.29023 -4.50593
436 1 12.4133 24.9018 1.76205 -3.60914 -1.78699 2.54108
1274 2 12.4619 23.0771 3.57502 -1.89667 1.05354 0.640889
1333 1 10.7796 24.7712 3.52804 1.66804 1.5983 1.70983
430 3 8.94511 26.5766 0.0807932 -3.24499 0.405632 -1.00263
1334 2 12.3394 26.582 3.59366 -3.16403 3.59911 -2.09577
433 2 10.6876 24.7524 0.00816545 -2.67092 -2.74314 2.26564
438 1 15.8777 26.6924 0.0233152 1.10073 -4.78598 -2.88158
379 2 14.2484 22.9682 1.60447 8.03979 -1.1388 2.87698
440 1 15.9794 24.8545 1.54925 1.65514 4.30023 3.43204
1278 1 15.9562 23.2002 3.47478 -2.78353 0.982623 -3.20611
1337 1 14.3261 24.9358 3.47962 2.91407 1.55118 0.501936
1338 2 16.0527 26.6177 3.46483 -1.30356 -4.19054 0.668473
378 1 16.1341 22.905 0.0309599 2.00654 2.23993 0.85526
443 3 17.7361 26.6738 1.65357 1.52063 -2.25542 -3.94533
1341 2 17.7499 24.9073 3.4517 -0.671108 0.999738 -1.15666
437 2 14.3169 24.95 0.0881415 -1.48873 5.87889 3.81426
447 3 21.4332 26.7018 1.61531 0.373919 3.18009 3.23808
383 3 17.8157 23.2491 1.81129 -1.5671 5.40362 0.430885
387 3 21.4101 23.0349 1.92024 1.6529 -1.59341 -4.21627
444 3 19.7043 25.044 1.72128 -0.108727 2.10049 0.226535
1282 3 19.6284 23.1559 3.60542 -0.903895 1.39205 1.76524
1345 3 21.5916 25.0658 3.61461 -2.32237 -0.934418 0.744597
445 3 21.2228 24.8898 -0.073622 2.82491 -0.838126 -4.02209
382 3 19.7257 23.0896 0.111395 -3.06969 1.98204 1.90834
441 2 17.9719 24.9353 0.0175866 -0.838727 -1.54079 5.2173
391 3 24.8376 23.18 1.78949 0.14348 2.37728 0.770032
448 3 22.9797 25.062 1.70203 2.87217 -4.67682 1.32419
1286 3 23.2277 23.0891 3.5479 -1.51541 0.0480528 0.637489
1349 3 24.8986 25.0484 3.38894 2.42561 2.05473 2.95175
451 2 25.0628 26.6199 1.70331 -2.34055 1.21934 2.21777
1346 2 23.1413 26.7028 3.41495 -2.84742 0.205707 -6.30277
386 3 23.2173 22.8348 -0.0570143 3.6299 4.4495 -2.15888
1805 2 3.50979 -0.0732599 7.10351 -0.819614 1.41541 -2.04968
1801 2 -0.0280784 -0.0610231 7.09536 -0.74954 2.27331 0.372492
907 2 3.3721 1.71218 5.19441 0.522001 -0.75275 0.941111
964 1 1.70873 3.48408 5.29847 1.74423 -0.163679 1.70928
1802 2 1.72058 1.76636 7.09119 -1.5074 2.18509 -2.99402
1865 1 3.65952 3.35325 7.09404 2.83022 -0.379921 2.98621
904 1 1.6824 -0.0546561 5.23086 -3.43525 -0.0948178 1.36728
1807 1 3.69426 1.5293 8.70783 0.978444 2.16796 0.895576
1804 1 1.71192 0.0217107 8.73866 -3.0168 -2.30529 0.350904
908 1 5.24707 0.14396 5.08546 0.0333718 -3.52649 -0.770945
911 2 7.29308 1.96675 5.21178 0.204226 -1.63469 2.67081
968 1 5.46296 3.48379 5.21585 -1.4106 1.03383 2.1789
1806 2 5.35282 1.83773 7.00873 -2.21828 2.28391 -1.1007
1869 1 7.29774 3.48342 7.0919 0.985563 1.88418 -7.36116
1811 2 7.14424 1.59536 8.62386 0.909947 1.15707 0.935797
1810 2 8.97907 1.7153 6.86414 -0.174633 1.79813 -1.79843
972 2 9.16379 3.62172 5.40036 0.324509 1.41376 -1.08776
915 1 10.8401 1.7019 5.301 -1.25096 -3.54547 -0.612852
976 2 12.5901 3.40914 5.43405 2.36508 -5.8127 1.56156
1814 2 12.8587 1.54786 7.09672 5.19346 -0.681087 -2.30246
1873 1 10.8836 3.28765 7.00527 -2.94216 -1.72636 2.09262
1872 1 9.10698 3.44601 8.77506 -1.82796 -4.77141 1.53545
1815 2 10.8589 1.50711 8.8295 1.84061 -3.40474 0.66514
919 1 14.4937 1.68033 5.33864 -3.31013 1.00854 -1.13479
980 2 16.1372 3.52659 5.55609 -0.607619 0.790902 -5.88179
1818 2 16.154 1.57788 7.10575 1.3004 0.0263574 3.07684
1877 1 14.3137 3.47013 7.34955 -1.91877 3.28356 0.906095
1880 1 16.0829 3.39926 8.78702 0.29814 2.9059 -1.52697
1819 2 14.4331 1.59319 8.86054 -0.195118 1.1281 -1.04783
1881 1 17.9443 3.53118 6.89196 -1.54581 -3.44343 -0.0435154
923 1 17.8605 1.81981 5.26316 -2.27807 -0.69042 1.30121
927 1 21.4379 1.69279 5.13959 -3.03537 -9.0062 -1.76301
984 2 19.7444 3.59675 5.17149 -0.506441 2.32117 -3.44476
1822 2 19.6962 1.88394 7.16813 4.14328 -2.1309 0.615825
1885 3 21.4536 3.46449 7.07091 4.52464 1.04982 -0.473877
924 3 19.841 0.0426538 5.47684 -4.89948 -2.90831 1.09883
1823 3 17.9635 1.70372 8.75034 -2.13572 0.561497 0.820438
931 3 25.0962 1.60744 5.35419 2.15579 -2.77115 6.09351
988 3 23.1895 3.55974 5.36749 -0.337589 2.3106 1.19036
1826 3 23.4069 1.76074 7.03083 0.729937 2.73068 0.176591
1889 2 25.0285 3.43193 7.15546 -4.10811 0.412346 0.57244
1888 3 23.262 3.5394 8.80242 -2.08844 -6.53048 4.85076
967 2 3.54647 5.10817 5.29891 -1.22716 2.06108 0.0321515
1024 1 1.73562 7.15961 5.29951 3.7521 4.94212 2.15981
1862 2 1.77894 5.0994 7.13348 3.89767 1.0277 -0.0870528
1925 3 3.50633 7.02418 7.0354 -2.34165 -0.951054 2.6205
1922 1 1.76056 8.60105 7.06135 2.71555 -3.97396 -0.60861
1027 3 3.66457 8.75139 5.2904 2.2455 0.389168 5.17974
1921 1 0.109467 7.06045 7.23125 0.144503 1.46425 -2.3142
1867 1 3.65352 5.08613 8.76886 3.61462 0.230285 5.68603
963 1 0.0531148 5.37412 5.43397 -3.07148 -7.52192 6.91307
971 1 7.32257 5.0727 5.31666 -0.261799 0.236218 -3.21312
1028 3 5.38672 6.73103 5.42292 -4.29468 -4.83124 0.912793
1866 2 5.54204 5.09756 7.10412 -0.0602047 -3.58541 0.689423
1929 3 7.3099 6.79147 7.05626 -0.223567 -0.990364 5.25312
1926 3 5.42993 8.63998 7.09568 6.18575 -2.15024 -2.7245
1031 3 7.23085 8.56773 5.2683 -4.15982 -1.32919 -1.97485
1931 3 7.1895 8.71221 8.85319 1.64158 -1.62479 -2.69447
1870 2 9.18493 5.45985 7.08958 0.958648 -2.74987 -0.581817
1032 3 9.21101 7.10115 5.32625 4.36063 2.40973 -1.89929
975 2 10.9668 5.30403 5.41027 5.24752 -4.43865 0.677906
1036 2 12.6375 7.04412 5.2816 -1.65103 -5.494 3.79007
1874 1 12.4809 5.14614 7.2837 3.36811 1.36637 -4.33476
1933 1 10.8904 7.14836 7.20594 -0.431878 -2.3096 -2.60034
1035 1 10.6903 8.77745 5.3209 3.6218 -0.856355 1.7617
1932 2 9.16603 6.99215 8.85566 -3.61825 0.829692 1.30863
979 1 14.3012 5.26995 5.40182 -2.15196 1.7317 -0.70269
1040 3 16.1394 7.00769 5.37238 5.69731 0.403238 -2.02248
1878 2 16.2073 5.24388 7.11885 -0.960645 -0.805868 0.309473
1937 2 14.2955 7.07885 7.14285 6.26503 -1.23181 -1.75009
1940 1 16.2493 6.91599 8.82667 -1.56374 -3.45804 -2.62922
983 1 17.9573 5.32417 5.2001 0.970372 -1.80858 -0.419088
1941 2 17.9268 6.90592 7.05156 -1.64491 -1.26076 2.60024
987 3 21.4946 5.21245 5.12883 -1.42696 2.80614 1.04677
1044 3 19.661 7.0324 5.41653 2.06045 0.460098 0.936552
1882 3 19.6432 5.23679 7.01545 -0.632837 -0.334797 -5.35435
1945 3 21.7152 7.00421 6.99864 -1.63259 2.3633 3.60963
1047 3 21.4176 8.70975 5.4304 4.07492 2.3276 3.0861
1942 3 19.7273 8.71827 7.15644 1.05037 1.93566 -0.157202
1947 3 21.3718 8.7752 8.8449 -1.74455 -0.757813 0.734654
1950 1 26.7541 8.72337 7.06919 -1.1164 5.17264 5.24309
991 3 25.0953 5.26839 5.28776 3.11664 -1.23465 -0.581223
1048 3 23.2279 6.95362 5.15942 -0.630774 5.47714 2.17482
1886 3 23.2945 5.28559 6.98587 3.02206 0.69314 0.294168
1949 2 24.9819 6.90962 7.16195 5.34551 -5.22901 -1.45185
1051 3 24.9461 8.76027 5.29072 5.35474 0.578393 -6.30448
1084 2 1.73438 10.3764 5.44537 1.62309 1.55273 -3.17083
1087 3 3.60046 12.1328 5.4067 -1.85252 0.934072 1.262
1982 3 1.7606 12.3175 7.12209 1.66709 5.54892 -6.28815
1985 3 3.55759 10.5319 7.05804 6.53757 -1.24769 2.41042
1987 3 3.62377 12.3229 8.74554 -4.96958 -4.46905 -0.714453
1981 3 0.107196 10.3491 7.10747 -0.287786 -0.450733 -2.44784
1083 1 -0.0420929 12.2609 5.44096 2.39366 -2.39656 0.690813
1983 1 -0.0286923 12.4111 8.79141 0.0652561 -1.6745 -3.53863
1088 3 5.5888 10.294 5.33831 6.26519 2.15521 1.39944
1091 3 7.39205 12.2175 5.25967 -4.32093 1.53147 0.369606
1986 3 5.68145 12.3475 7.10517 -1.4159 -1.35016 -0.0965185
1989 3 7.11932 10.5052 7.0593 0.996685 1.35839 1.68125
1988 3 5.46784 10.5943 8.82391 4.10689 -2.16466 0.47627
1992 3 8.9879 10.4634 8.79554 5.75393 -4.21323 1.35459
1934 2 12.5226 8.92548 7.05337 -2.55309 0.904019 -5.98861
1930 3 9.04743 8.91875 7.09962 0.886874 -1.284 2.45316
1092 3 9.02934 10.4729 5.24636 1.5077 -2.48477 3.49493
1990 3 9.02643 12.2493 7.01595 -0.830827 0.258416 -3.74766
1095 1 10.7615 12.4008 5.20898 -3.11639 3.93496 -3.99292
1096 1 12.4539 10.6014 5.20461 -5.53766 0.306375 0.0995151
1993 2 10.8126 10.5084 7.01835 -2.75942 -4.21541 -0.0487515
1994 3 12.3819 12.5465 7.21002 0.00403373 -5.02078 -1.77173
1995 3 10.5762 12.2097 8.87526 0.799602 0.477027 4.53834
1938 3 16.0967 9.00338 7.08969 -4.33873 1.40149 0.706108
1039 1 14.2644 9.01255 5.31656 0.58272 -2.03173 -3.78579
1099 2 14.5243 12.3728 5.5199 1.37902 2.03148 0.940025
1100 1 16.2458 10.6727 5.32234 2.50093 0.306917 -5.54463
1997 2 14.2383 10.697 7.0171 3.02458 1.7255 5.98528
1998 1 16.091 12.2379 7.19812 -2.23826 1.03156 -1.54114
1043 1 17.8591 8.91494 5.32136 5.19353 -0.238486 2.06589
2001 2 17.9397 10.5711 7.29801 -1.05315 -2.29887 2.29474
1103 2 17.8375 12.4373 5.30301 -1.67645 0.0762684 2.8123
1104 3 19.5574 10.6253 5.39414 -1.02179 -4.1685 1.22036
1107 2 21.5498 12.5057 5.44673 2.68196 -5.71212 -1.93593
2002 1 19.5223 12.3451 7.15877 -0.364919 0.25698 0.23561
2005 3 21.5285 10.7516 7.09361 -2.93285 -2.27814 3.10094
2004 3 19.6646 10.6734 8.83553 -0.233367 0.551205 -6.12269
1946 3 23.3687 8.92204 7.23487 7.24785 0.726271 -1.6804
1108 3 23.1597 10.5017 5.3885 0.134936 0.391494 -0.32921
1111 1 24.9949 12.5276 5.28672 0.619921 1.40639 -2.61399
2006 2 23.2572 12.3588 7.09971 2.35349 -5.07176 -1.35463
2009 3 24.9882 10.5649 7.07755 6.89866 7.09807 -0.67732
1143 2 0.0211717 15.8727 5.48999 -3.21234 0.167735 -4.02435
1144 3 1.66604 14.1171 5.43965 -5.12907 -0.82034 -7.12167
1147 3 3.51847 15.8729 5.40943 -4.43321 -6.65165 -3.78005
2042 3 1.754 15.9162 7.17931 2.30087 4.31588 -2.122
2045 3 3.72699 14.1853 7.02306 -1.59929 2.45633 2.5067
2041 3 0.0121174 14.0254 7.09842 -3.31713 1.59931 -1.58718
2105 2 3.71097 17.6705 7.04436 -2.92604 -2.74293 3.11488
1204 1 1.8306 17.7819 5.59112 -1.16491 0.306721 2.40571
2043 1 -0.0105436 15.9257 8.80515 -3.18875 0.131062 -0.0749801
1148 3 5.43259 14.1112 5.11697 -2.47258 -4.19913 -1.05043
1151 1 7.36995 15.8713 5.23686 3.4951 -1.45121 2.50802
2046 2 5.52627 15.8813 7.00898 -2.75565 -3.94774 -4.37732
2049 1 7.29775 14.1935 7.15991 0.270288 0.150485 -1.62715
1208 1 5.40406 17.6631 5.3596 0.00388698 2.38928 -4.1476
2109 2 7.34165 17.646 6.99853 1.04423 4.67437 -1.44776
2048 3 5.38606 14.2243 8.85014 0.472999 -4.62817 3.24119
2051 2 7.25353 15.8746 8.75662 -0.818805 2.43157 -1.56594
1152 2 9.05827 14.1996 5.36358 4.40117 0.131467 1.11003
2050 1 9.09333 15.9866 6.89187 -4.61597 0.261817 -0.804288
1155 2 10.8993 15.9225 5.26535 0.411767 3.46228 5.69916
1156 1 12.5025 14.2026 5.21 1.33884 -0.734638 3.3476
2053 2 10.884 14.3439 7.10042 -3.80201 -2.54535 4.96629
2054 1 12.6096 15.9903 7.02845 3.87056 0.749302 -3.37802
2113 2 10.5838 17.5977 7.10133 -3.56003 2.41611 3.49247
2112 1 9.10205 17.7678 8.80004 -1.44176 5.85912 -1.03213
2116 3 12.5651 17.7255 8.81532 -3.32589 3.09723 1.15194
2055 3 10.7451 15.9501 8.79992 1.20348 -1.02275 -1.69381
1159 2 14.3984 15.8292 5.33854 -2.27275 -0.807097 -3.38017
1160 1 16.123 14.0909 5.35493 0.74444 -3.07048 2.86303
2057 1 14.3063 14.1565 7.07726 3.41125 0.510674 -3.43871
2058 1 16.0316 15.8618 7.22429 -1.28444 -1.65444 2.69759
2117 2 14.3803 17.8088 7.13556 0.584413 1.12885 -1.30398
1220 1 16.1719 17.5631 5.40499 6.08815 -0.746717 1.46487
2063 1 17.7483 15.9641 8.85506 2.03742 3.5876 0.589927
2061 2 17.9893 14.0479 7.22831 0.326304 9.05462 -2.41215
1163 2 17.8278 15.8614 5.48233 -0.994874 -2.03899 -0.736918
1164 1 19.8028 13.9781 5.44734 -3.7466 -4.29349 -0.619822
1167 2 21.5956 15.9711 5.42468 2.1603 6.06997 -0.151358
2062 1 19.7599 15.9812 7.17786 1.0034 -1.10026 -0.728042
2065 2 21.3864 14.0603 7.26141 -1.15529 -2.46944 -0.00661856
2125 1 21.4037 17.8032 7.22917 -3.04905 1.39414 -1.20231
2121 2 17.8232 17.7203 7.0971 -0.399116 0.262806 -0.945111
1224 1 19.6191 17.5903 5.46097 -2.26771 -0.79334 -1.13984
1168 1 23.2971 14.2472 5.53603 4.45325 -2.38386 -1.86374
1171 1 25.0245 15.9275 5.39972 -1.7104 -1.88919 -3.54754
2066 1 23.293 15.9919 7.16795 -5.90427 -0.862319 2.05819
2069 2 25.1741 14.2177 7.31426 -1.25672 -3.73383 -1.12758
2129 2 24.9469 17.8099 7.47958 3.48687 2.24749 1.34698
1228 2 23.4651 17.7855 5.36382 -0.266753 -3.49092 -2.07518
1203 1 0.122931 19.5167 5.4703 2.66907 -4.70582 -1.42137
1207 1 3.50778 19.4817 5.42681 -0.251232 -5.09917 3.46044
1264 2 1.99338 21.2618 5.3656 -1.21537 -0.297653 -4.64149
2102 1 1.83708 19.4663 7.17094 -0.635347 -4.64021 0.301845
2165 1 3.45492 21.375 7.14369 -1.76344 1.00296 -0.187751
2161 3 0.116564 21.2889 7.16454 0.32699 4.58761 -4.06962
2107 2 3.58373 19.3186 8.73613 4.60894 -0.0488621 -0.562588
1211 1 7.23634 19.5543 5.39196 4.79346 -0.82606 -4.9035
1268 2 5.30401 21.2625 5.56526 -4.94296 -3.43872 -1.1732
2106 1 5.41957 19.4165 7.13716 0.497272 -0.190473 -1.53144
2169 2 7.13112 21.2498 7.09533 -2.09863 3.19994 2.40097
2111 1 7.23351 19.3937 8.7573 -2.50357 1.3162 -0.126725
2168 2 5.38826 21.3084 8.77087 -4.7743 -0.19086 -2.28214
1272 2 8.83896 21.198 5.41414 2.22469 -4.14799 -4.20066
1216 3 12.6522 17.8588 5.55813 3.51986 3.39199 -1.466
1212 1 8.95943 17.8199 5.10336 0.439654 -1.55918 -0.808432
2110 1 8.97194 19.4645 6.98401 1.88462 -4.92015 -2.60426
1215 1 10.875 19.4153 5.3548 -0.439444 1.97813 -2.21334
1276 1 12.5177 21.2044 5.38034 -0.516914 2.09145 -3.38238
2114 3 12.5921 19.5542 7.28915 0.0798865 -0.307438 -2.6159
2173 3 10.678 21.2878 7.14309 -1.42569 0.558965 -2.55956
2176 3 12.5614 21.2958 8.82869 -0.91116 2.15259 -0.861867
2172 2 8.92691 21.2475 8.8345 -0.0693409 4.0869 -4.61546
1219 2 14.3977 19.5628 5.37028 -0.634304 0.793358 0.178932
1280 3 16.1358 21.4252 5.41513 -2.66941 -1.06754 -3.88213
2118 1 16.0854 19.3196 7.14176 -0.363434 -0.275381 -1.63938
2177 3 14.4372 21.4598 6.93219 2.6008 1.99047 6.14268
2181 1 17.9531 21.2402 7.11333 3.83451 -4.82465 5.84782
1223 2 17.9566 19.5562 5.24494 -2.49007 -2.31699 1.13388
1227 2 21.3896 19.2304 5.41917 2.48792 3.88122 4.49025
1284 2 19.5954 21.3093 5.48931 0.806553 0.297808 4.20668
2122 1 19.5298 19.4513 7.3404 -1.48916 -6.52021 -1.47312
2185 2 21.4381 21.3836 7.22855 -1.90659 -1.57037 4.58303
2127 2 21.4308 19.5923 8.85175 -1.22145 -0.00475608 2.69363
1231 1 24.9978 19.3642 5.25956 5.71629 2.07095 1.36658
1288 3 23.225 21.1927 5.25635 -1.19137 0.411792 -1.58599
2126 1 23.3982 19.4513 7.20338 -2.02411 -0.729015 -1.01869
2189 2 24.8424 21.338 7.07814 1.53695 1.20366 -1.37858
1292 3 26.7079 21.2758 5.3259 -5.57889 1.27425 2.72384
2131 2 25.1704 19.7595 8.82773 -0.823969 0.265213 -3.41512
1267 3 3.56361 23.2134 5.34707 -2.78918 0.426501 4.28559
1324 3 1.71436 24.8727 5.34309 -2.54351 5.62167 -2.08964
2162 3 1.83979 23.2075 7.20876 -1.81764 -0.197896 3.68942
2225 2 3.57707 24.9911 7.18086 2.65888 1.25461 4.73313
2224 2 1.5254 24.9561 8.79543 -2.92183 -3.31503 -0.766605
1263 2 0.125676 23.0868 5.23215 -4.1953 2.93117 0.415589
2222 3 1.65229 26.5605 7.02727 1.98385 -1.25507 -1.81895
1327 3 3.45793 26.5972 5.27123 0.936783 -6.66309 -1.92445
2167 1 3.65144 23.1871 8.83048 1.95569 -2.34868 -2.25374
2226 3 5.23491 26.6326 7.13579 0.858798 -0.74554 -4.75594
1271 1 6.99352 23.1429 5.15328 -4.62569 -0.746774 1.11315
1328 3 5.42825 25.1225 5.26449 0.808646 0.836017 -1.41118
2166 3 5.49028 23.2154 7.06624 1.45693 0.994423 0.908501
2229 3 7.23864 24.9353 6.95216 3.60007 1.71024 -0.635181
2228 3 5.35958 24.9336 8.84789 -3.29314 -5.41116 4.85596
1331 3 7.22348 26.6517 5.2947 -5.07438 5.75156 -2.85851
2170 3 8.8227 22.9857 7.25422 -0.184191 3.12847 3.47474
1332 3 8.97656 24.8168 5.41207 0.845144 -1.60904 3.27441
1275 3 10.7828 23.1449 5.391 -5.38336 -2.96394 3.69826
1336 1 12.5733 24.9083 5.26546 -1.48446 -3.58374 2.50936
2174 3 12.5056 23.1067 7.11871 0.187951 -0.842867 -3.24391