ITEM: TIMESTEP
6600
ITEM: NUMBER OF ATOMS
13500
ITEM: BOX BOUNDS pp pp pp
-8.5936059094365191e-02 5.3605936059093281e+01
-8.5936059094365191e-02 5.3605936059093281e+01
-8.5936059094365191e-02 5.3605936059093281e+01
ITEM: ATOMS id type x y z vx vy vz
7 1 3.69895 1.79724 1.77001 -2.44181 -2.23769 -7.26662
64 2 1.7817 3.57659 1.61148 6.59858 -2.08107 -1.8535
902 2 1.60061 1.69136 3.41959 -0.269086 -8.68264 -3.69953
965 3 3.38574 3.48779 3.63794 0.0497854 -5.23322 -1.92065
4 1 1.93059 -0.0522782 1.53677 0.456398 0.607089 -0.680566
905 1 3.52656 -0.0741919 3.65198 4.30023 -5.33507 4.16649
3 3 -0.0873714 1.858 1.59284 -1.72004 3.81173 -2.01151
5 2 3.49538 -0.0275722 -0.0523883 -0.457919 -0.487222 0.155521
65 1 3.45211 3.62375 -0.053685 -0.617738 0.45172 -2.23386
961 2 -0.0133554 3.55107 3.57239 1.08364 -3.87572 -4.44682
2 2 1.76332 1.76189 -0.0664069 3.09598 1.85029 8.0411
11 1 7.05109 1.85062 1.83888 -5.356 -2.98746 1.82641
68 2 5.08994 3.72307 1.66947 0.259984 -3.48265 3.04609
906 2 5.32519 1.73666 3.7011 -1.39134 -0.587359 2.58459
969 3 7.16175 3.44402 3.67932 -1.3301 -3.05003 -4.2706
8 2 5.31158 -0.0362624 1.94741 1.5119 -4.60596 2.01245
909 1 6.99489 -0.0580247 3.53922 1.96425 -0.0941382 -0.117
910 1 8.7993 1.629 3.64121 -0.119432 2.06994 0.140019
72 2 8.95722 3.56214 1.65693 1.7721 0.946916 -1.22133
15 3 10.4222 1.75768 1.77253 0.937216 -0.0812964 -3.51387
76 1 12.3135 3.38422 1.71016 -5.51253 6.93415 1.09072
914 1 12.4087 1.76042 3.53196 0.553037 1.8685 -3.38464
973 1 10.5366 3.34535 3.45494 0.242481 -2.10519 -1.28585
14 2 12.3086 1.74301 -0.0430777 -2.04922 0.96416 -6.5404
13 1 10.8362 0.0252073 -0.0315383 -1.08235 -2.95316 1.18642
19 1 14.0792 1.73398 1.65086 -2.84069 -1.273 3.47311
80 3 16.0434 3.35796 1.73323 -0.488505 0.325884 -2.74298
918 1 15.8238 1.73518 3.69481 1.77138 -1.02282 -2.8018
977 2 14.2837 3.45821 3.53752 2.305 0.340101 -4.15436
981 2 17.7816 3.17482 3.6366 1.1165 1.41357 -4.28244
17 1 14.2883 -0.0596139 -0.0310735 2.942 -4.84247 -2.64797
77 3 14.1827 3.38631 0.0913014 0.651827 -0.200992 0.480255
20 1 15.8535 0.0219205 1.91869 -6.67868 2.51401 -1.62011
23 1 17.7395 1.5727 1.74519 -1.05568 3.88079 4.90131
27 2 21.4434 1.69413 1.58669 -1.271 2.4463 0.68549
84 1 19.4835 3.45191 1.74929 1.14467 -1.64615 3.87787
922 2 19.7608 1.61766 3.50767 3.36395 4.16449 3.71552
985 2 21.3926 3.39905 3.37149 -1.44036 -1.65696 4.1473
85 2 21.277 3.47354 -0.0288928 -5.16333 -2.36304 2.22159
31 1 24.9852 1.67566 1.53114 -2.75408 3.0251 5.04375
88 3 23.2664 3.40093 1.50874 -0.427973 0.348325 -3.02224
926 3 23.2075 1.63257 3.40422 2.39291 1.06833 -0.0190237
989 1 24.9269 3.40503 3.35243 -0.0499801 0.413825 -4.71878
929 1 25.1498 0.0495224 3.40826 -3.10786 -6.23302 -0.478539
92 1 26.7354 3.55245 1.50376 3.86736 1.74906 -3.25787
121 3 0.00192455 7.23638 0.24532 0.943399 0.555687 0.987663
67 1 3.32787 5.38581 1.80504 -5.199 -1.2002 0.713901
124 2 1.78101 6.97085 1.67442 5.73036 4.58438 8.40649
962 3 1.58067 5.23504 3.54565 2.5119 -0.908441 3.87352
1025 2 3.54253 7.22076 3.65805 -2.0385 3.64666 -2.56035
125 2 3.51494 7.28228 0.0499553 0.159001 -4.88317 1.32775
1021 2 0.00844522 7.05383 3.5052 5.17478 -1.07312 0.139814
1022 3 1.65925 8.79694 3.38908 -2.88286 -5.74479 -3.50039
62 2 1.69988 5.28437 -0.0697046 4.11694 -0.689741 4.02084
71 1 7.04645 5.27982 1.76316 -0.0270555 4.33973 -5.34067
128 1 5.32851 7.21369 1.5681 2.56357 1.76839 0.0878487
966 2 5.26637 5.35039 3.35039 2.03901 -3.06099 2.11383
1029 2 7.00838 7.22173 3.51351 1.12214 -5.63879 -4.57364
66 2 5.29301 5.41864 -0.00328339 1.62636 -1.42713 -1.48793
129 1 7.03822 6.93924 -0.0136645 -1.51673 1.5795 -4.52927
1026 3 5.44533 8.80486 3.4477 -3.08513 -1.51549 3.48124
1030 1 8.97323 8.70926 3.45446 6.51256 -1.20989 0.658489
970 1 8.90501 5.3928 3.5007 -4.64412 -2.09621 -4.79671
132 2 8.91093 7.06115 1.77208 -2.23146 -1.28561 1.91339
70 3 8.87061 5.32218 -0.051167 -2.30975 -1.48272 1.7406
75 2 10.8692 5.41612 1.68994 1.60135 -0.547231 -0.845855
136 3 12.5117 7.1278 1.62559 -0.342128 -0.403305 0.150287
974 1 12.539 5.34448 3.50437 -2.1428 -1.36581 0.380246
1033 1 10.7652 6.90666 3.60329 1.56175 1.29891 -1.0252
74 1 12.4623 5.33862 0.0951944 5.20063 0.847152 -4.1772
135 2 10.6806 8.74746 1.63047 5.07638 0.283543 -8.47965
1034 3 12.6069 8.82571 3.51703 -0.854459 2.86397 -0.546654
79 3 14.3479 5.1807 1.84813 -2.84493 3.84476 3.39414
140 3 15.9844 7.20888 1.80829 -1.31559 1.46946 -0.970571
978 3 16.097 5.17806 3.61006 -3.00812 0.324273 -1.78032
1037 2 14.4335 7.20131 3.49468 5.09467 -2.00837 -1.09687
78 1 15.9296 5.36286 0.0153094 1.58974 1.13759 -0.837838
83 2 17.7355 5.29483 1.68283 0.362037 -3.87295 -1.52585
1041 3 17.7808 6.86699 3.56707 -0.85075 -2.57211 0.365966
141 1 17.9547 7.03066 -0.00680058 -2.8811 -3.2535 -4.01218
87 1 21.399 5.18401 1.63657 -1.04324 2.84557 -2.94434
144 1 19.5316 6.97511 1.80072 -0.685074 3.22035 -5.39462
982 3 19.5827 5.03455 3.40964 1.25557 -1.0154 3.2532
1045 3 21.4419 6.91559 3.56011 -1.39932 1.8644 5.15891
145 1 21.3426 6.76248 0.0410253 -2.50838 -0.59209 -0.29556
147 2 21.2742 8.80306 1.61648 -1.89663 -3.59387 -1.63107
142 2 19.6304 8.84964 0.0224607 4.58559 -4.11261 -11.4957
91 3 25.0972 5.35392 1.6494 3.0114 4.25404 4.98895
148 3 23.1531 6.88812 1.78375 -0.461547 -1.24972 -0.860323
986 2 23.3337 5.04134 3.42609 -0.729638 4.05988 -3.4052
1049 3 25.0284 7.04021 3.55372 -1.45025 4.74345 -0.471556
86 1 23.1963 5.31487 -0.0533511 4.42849 -1.37936 -1.70388
1050 3 26.6018 8.81903 3.45167 -1.85404 1.30229 -3.12526
151 3 24.9731 8.8394 1.66774 1.18493 -4.22718 -2.1956
127 2 3.47774 8.90812 1.83209 4.13296 0.549609 -0.982375
184 1 1.72988 10.8979 1.49556 -0.101714 6.79817 3.88672
187 2 3.56957 12.5276 1.68055 1.3716 -4.334 -0.449082
1082 1 1.70293 12.6017 3.44747 1.24994 -1.15126 1.98275
1085 3 3.6468 10.7427 3.53244 0.197261 2.65527 4.49006
122 3 1.68029 8.94991 -0.0807709 -0.55158 1.40286 -3.89773
185 1 3.53913 10.6238 -0.0317072 -2.15992 2.5379 -1.90235
1081 2 0.106325 10.7981 3.43039 -5.15882 2.01093 -3.57034
123 3 -0.0499364 9.15268 1.76714 2.82779 -4.1102 -0.356608
182 2 1.8721 12.7411 -0.0630629 -5.07073 -1.34055 5.90092
131 2 7.05069 8.98636 1.63834 1.58116 1.3289 5.35113
188 1 5.34648 10.7813 1.77101 1.97591 -1.9109 0.15046
191 2 7.17326 12.1877 1.93596 -1.62312 -1.30424 -1.27016
1086 2 5.52967 12.627 3.56081 0.577143 0.20339 0.752938
1089 1 7.0827 10.5357 3.67501 -4.95676 0.50035 1.65799
192 1 8.75203 10.6467 1.68588 2.87908 1.43193 9.98066
1090 2 9.00914 12.5102 3.50263 2.05599 -3.93711 3.28282
195 2 10.477 12.4076 1.60562 3.3349 0.707719 -5.21491
196 1 12.3071 10.807 1.6495 -0.472696 -1.70473 -0.881482
1093 2 10.6429 10.5823 3.1824 -0.15706 0.885365 2.49312
1094 2 12.1795 12.4844 3.40307 -1.23864 -4.2252 -2.67729
193 1 10.7284 10.7354 -0.0183514 1.61953 -0.930905 0.117143
134 1 12.5497 8.96812 -0.0723992 -4.02762 3.09369 1.88217
194 3 12.4431 12.5725 -0.0736617 -0.290102 3.42009 4.00251
138 3 16.0309 8.94357 -0.0574466 2.16894 2.52817 -0.748503
1038 2 16.0894 8.92439 3.56454 3.21816 -0.0407854 -0.0857359
139 2 14.1492 8.98505 1.50362 2.21688 2.71849 4.17091
199 1 14.133 12.4766 1.82517 -2.19591 0.764513 4.62911
200 1 15.8823 10.7516 1.70219 2.01367 -5.10326 3.04846
1097 1 14.0984 10.7789 3.58095 -2.60033 -1.12139 -1.20392
1098 2 15.9443 12.4968 3.50216 1.42632 5.11646 3.42229
203 2 17.7266 12.4562 1.76634 -1.20171 -4.99233 -3.11628
1101 2 17.7425 10.8478 3.62258 -1.85732 0.193863 1.78243
143 1 17.8757 8.88042 1.75521 1.8165 -2.01079 1.45467
1042 3 19.6696 8.91559 3.47499 0.0328657 -0.0764284 -1.55402
204 3 19.7527 10.7171 1.78689 2.4205 -1.58082 0.360461
207 3 21.741 12.5758 1.85379 -0.174023 1.02311 0.435199
1102 1 19.7619 12.4482 3.42128 0.813527 1.04085 7.40198
1105 1 21.5842 10.7297 3.44515 -5.06819 1.45938 1.45932
202 3 19.7134 12.549 -0.00929265 -0.0515495 -0.359053 3.42246
205 3 21.498 10.6831 0.0572859 -9.82258 -2.46993 -4.13723
201 2 17.9277 10.578 -0.0216192 0.386481 -1.06578 2.53172
146 3 23.0698 8.86731 -0.0707834 0.0092448 -0.564686 -1.29228
1046 1 23.0317 8.9404 3.43204 0.831349 0.162835 2.31339
208 3 23.261 10.7667 1.5415 -2.03626 -4.18735 1.76041
211 1 25.2699 12.6292 1.63562 -1.15864 5.65205 -1.23396
1106 2 23.2719 12.4138 3.48948 0.667639 5.39374 3.93656
1109 3 24.8961 10.7101 3.20279 5.01288 3.99458 7.53687
209 3 24.9846 10.7591 0.106288 2.13642 1.5987 0.892287
244 1 1.68886 14.2777 1.86704 0.944922 -0.837958 1.5281
247 3 3.42758 16.11 1.51949 -0.895097 -5.3693 1.16928
1142 3 1.87385 15.9563 3.48287 -2.05562 -0.786277 1.31795
1145 2 3.58617 14.2428 3.41227 -3.28737 4.21631 -6.38516
245 1 3.38584 14.2174 -0.071772 -5.74292 0.169053 -3.38643
304 2 1.65669 17.7895 1.61131 1.08805 0.959771 2.70753
243 2 -0.0323512 16.028 1.79473 -0.916147 -4.03666 -0.318462
248 3 5.33498 14.1958 1.64259 1.42025 0.689165 1.38432
251 2 7.08147 16.0193 1.88408 1.3786 0.383419 -1.23197
1146 1 5.14616 16.1789 3.22773 0.557058 -0.664278 -3.03943
1149 1 7.08228 14.2839 3.44849 -0.661125 0.628916 3.26919
1150 3 8.86131 16.0247 3.70401 4.04963 -1.29528 0.48149
252 3 8.59908 14.1466 1.6981 3.89705 -1.60129 1.06628
309 3 7.20129 17.7865 0.0147815 -6.53039 2.39151 -0.156661
312 1 8.80589 17.7036 1.96525 0.310107 -1.59691 3.71703
246 3 5.41575 16.0992 0.0315807 -1.89452 1.51351 3.95489
1209 2 7.09451 17.7066 3.55835 1.2335 -3.1692 6.78779
255 1 10.6733 16.1795 1.60153 0.986636 -1.30375 -1.79222
256 3 12.3633 14.1864 1.87266 -1.55657 -1.1988 -0.327365
1153 1 10.5559 14.3955 3.51002 1.97869 -2.75399 -6.42454
1154 2 12.1906 15.9902 3.52162 3.2436 -0.917768 -1.77074
250 3 8.89344 16.1193 0.0405888 -1.24541 0.374146 -2.57401
253 3 10.7499 14.3906 0.103656 2.27665 2.76799 -3.05994
1213 3 10.7403 17.7934 3.53824 -2.08338 1.00584 1.15291
259 3 14.2431 16.044 1.93846 -2.01371 -2.18705 -2.11359
260 3 16.0646 14.3631 1.746 -2.9279 2.71806 -5.15717
1157 3 14.139 14.2848 3.47723 -0.559089 1.11064 -0.864585
1158 2 16.0688 16.0481 3.58205 0.600543 2.22225 -2.19889
258 1 16.0974 16.116 0.0307913 -3.44165 -1.09112 -1.42959
263 1 17.6905 16.1973 1.80001 1.03089 -5.2719 0.389128
1161 1 18.0412 14.1764 3.63159 2.9277 -0.520294 3.18713
264 3 19.6718 14.3871 1.84146 -1.21159 -2.99383 1.92574
267 3 21.3786 16.1321 1.82786 -2.58512 -0.726774 3.86484
1162 1 19.3416 16.2964 3.51478 3.28635 1.11263 -1.84782
1165 2 21.3402 14.4095 3.59932 0.0172696 -2.46918 -0.361804
261 3 17.8698 14.1245 0.137428 -3.7697 1.55127 -2.11987
262 3 19.4091 16.2008 0.0913448 -1.17058 4.61357 -3.27797
268 1 23.1994 14.3347 1.84675 -6.03813 -4.25936 -1.83822
271 2 25.184 15.8364 1.69424 0.906892 4.9231 3.40084
1166 2 23.2159 16.0965 3.67039 2.21355 3.17976 -0.950684
1169 2 25.1752 14.1982 3.56603 -4.62523 -3.05151 4.15431
269 1 24.9419 14.3001 -0.0624443 -4.40621 3.047 -2.82615
1229 3 25.0612 17.7174 3.28884 1.03057 2.31808 1.84176
328 3 23.2625 17.7098 1.65224 0.59421 -1.84258 -2.08298
270 2 26.7086 16.057 0.00323656 -4.18729 3.96233 1.98878
1205 3 3.48118 17.82 3.45353 -0.0770308 -1.21252 -0.214103
307 1 3.27692 19.6418 1.64917 -2.8601 -0.611382 5.4749
364 2 1.66067 21.3939 1.70431 5.9309 1.58766 -2.12109
1202 3 1.67063 19.6232 3.45271 -7.46994 3.38359 3.06249
1265 1 3.38982 21.4842 3.4576 -3.86615 -2.71957 -1.80004
1201 3 -0.0200312 17.8409 3.53474 10.4283 1.43601 -3.25839
302 3 1.57218 19.6392 -0.0702236 -2.41874 -0.996789 2.07188
308 3 5.3439 17.967 1.61642 1.63319 5.23676 1.92495
311 1 7.2332 19.7202 1.82978 -1.17354 -2.55626 0.701736
368 2 5.25456 21.3395 1.68077 0.178612 1.43748 1.47004
1206 3 5.38266 19.7283 3.49736 -0.330128 1.34259 -0.0880638
1269 2 7.06322 21.5367 3.57649 0.369539 -1.1214 4.53903
369 2 7.01368 21.3943 -0.042469 -2.19943 4.25844 4.51374
310 1 8.89912 19.5946 0.0684187 2.22419 -0.332054 -1.9972
313 2 10.5302 17.9092 0.0175405 4.03096 0.293106 -4.2861
372 1 9.01936 21.6412 1.7681 3.07601 3.23041 1.52684
1210 2 8.94557 19.8623 3.48547 0.99265 0.0375526 3.04121
316 3 12.672 17.9334 1.66796 -1.02935 -0.814159 1.00478
315 2 10.5528 19.5342 1.78682 -2.52453 4.28193 -0.200755
376 2 12.6232 21.4427 1.60379 -1.51067 -0.519764 0.884303
1214 2 12.4043 19.8985 3.38407 0.696612 -3.86054 -4.16006
1273 1 10.8338 21.4983 3.44966 -3.83998 -3.65377 -0.903042
373 1 10.8284 21.3221 0.0584926 -0.342624 4.33648 0.881385
317 2 14.3934 17.8523 0.0225582 -0.677548 3.9079 -0.285177
1217 1 14.34 18.0743 3.40524 3.30597 2.47563 -1.03634
320 1 16.0373 18.0182 1.87801 0.932804 -2.19545 -3.45629
319 3 14.2164 19.775 1.73344 -2.03135 -0.104497 -1.58463
380 2 15.9418 21.5304 1.82024 1.05913 -1.01299 -1.31248
1218 1 15.8023 19.9355 3.65898 0.725365 -0.574322 0.379036
1277 1 14.1703 21.7634 3.56442 -0.504547 0.930214 -0.550125
1281 2 17.5988 21.4112 3.45489 1.76214 0.407957 6.24839
1221 2 17.8755 18.3018 3.5304 2.31349 0.167169 3.77585
1225 3 21.3786 17.9443 3.46694 1.49663 5.64459 -1.19473
323 1 17.9799 19.7732 1.56509 -3.28409 -6.90913 -1.942
324 2 19.433 17.871 1.6173 2.26419 -0.0301825 -0.747509
327 3 21.5411 19.5383 1.47168 2.7413 -1.63313 1.96447
384 2 19.7138 21.4165 1.67279 4.18599 -0.965821 -3.44209
1222 1 19.6898 19.8372 3.32665 -0.186539 0.263493 1.18349
1285 3 21.5041 21.2825 3.5117 -0.184772 -2.62499 -4.58781
381 3 17.9473 21.575 -0.0580854 -4.1045 0.633566 -0.160979
322 1 19.7195 19.5325 -0.0675693 1.43972 2.97532 -2.12492
331 3 24.9008 19.7001 1.69592 0.0752786 -1.38364 1.65138
388 3 23.1496 21.5842 1.60308 -3.83184 -6.97855 -0.551006
1226 3 23.2439 19.4679 3.29754 -1.48163 4.03959 0.200953
1289 2 24.8878 21.5395 3.59549 1.82671 -5.8252 3.29155
392 3 26.5968 21.4663 1.76318 2.54702 -3.14654 -0.29455
1230 3 26.7345 19.6684 3.34169 -3.59075 -0.0663951 -0.0771325
332 1 26.6994 17.9774 1.58122 -1.57584 -7.42479 -3.82462
367 3 3.46452 23.1205 1.73456 -4.5125 -0.338152 -2.25902
424 2 1.70809 24.9833 1.65138 3.32186 1.83208 -1.33855
1262 1 1.57877 23.3614 3.51726 -0.086545 6.2499 2.31975
1325 1 3.38338 25.2692 3.56153 0.314581 -0.200213 -0.382177
421 2 -0.0230847 24.9358 -0.0478967 -5.83855 1.36584 -3.00871
362 1 1.50568 23.0604 0.117802 4.48725 0.353621 3.47648
371 1 6.97677 23.1413 1.66867 0.28043 -1.91711 -0.229007
428 1 5.14515 25.1079 1.63487 2.77474 3.94132 2.28064
1266 1 5.12117 23.1381 3.26337 2.29073 0.369179 -0.950448
1329 3 6.88605 25.1272 3.41726 2.29379 1.58805 -6.05688
1270 2 8.7522 23.2475 3.5498 3.58051 -4.76891 3.6793
366 1 5.19628 23.0865 -0.0544344 -3.48414 -1.83333 1.96488
1330 3 8.95237 26.7029 3.43159 -1.30886 -3.37011 1.87012
432 1 8.90193 24.8906 1.69792 0.679533 6.53942 2.51803
435 2 10.6346 26.7193 1.64888 -1.17908 -1.13536 -0.642642
375 2 10.6907 23.4066 1.63518 0.317195 -3.51632 -3.35065
436 1 12.4198 24.8625 1.85654 0.0950108 0.501446 1.06526
1274 2 12.4477 23.2128 3.6547 -2.19873 3.42843 4.07973
1333 1 10.6096 24.9006 3.58725 2.67382 2.48816 -5.8191
374 3 12.5298 23.2561 0.0414894 5.98966 6.50493 1.06129
1334 2 12.4454 26.7176 3.4779 -3.62346 0.0834313 -3.5559
434 2 12.4303 26.6338 0.0325486 3.3371 -2.63288 -2.72928
379 1 14.2603 23.2813 1.75445 0.901928 -1.68974 -1.65659
440 2 16.1449 24.9216 1.9752 -0.507664 -2.22507 -1.06137
1278 2 15.9071 23.2827 3.80727 0.819372 2.83229 -2.39762
1337 1 14.1605 24.9757 3.7078 -0.458272 1.65003 -1.67297
383 1 17.7037 23.221 2.04458 2.611 4.00723 0.789194
437 2 14.3876 25.1234 0.0914983 1.58365 -0.353657 -3.45676
441 3 17.7126 25.0222 0.0341908 0.018852 -0.272132 5.49391
1341 2 18.0359 25.2466 3.70893 6.73144 2.79075 -1.32979
387 3 21.5973 23.5285 1.47576 -0.766524 -5.71578 0.602972
444 2 19.5042 25.0546 1.78511 2.19691 -6.12184 -1.5421
1282 3 19.7468 23.0498 3.2774 0.76987 -4.0643 0.07472
1345 3 21.3566 25.0497 3.33052 -0.149381 3.52083 4.04349
382 3 19.6938 23.3002 0.0288909 0.954414 -0.176654 5.11066
391 3 24.8446 23.3303 1.67775 -3.724 1.35668 0.563649
448 2 23.3186 25.088 1.51162 5.20152 -2.6202 -6.93951
1286 3 23.06 23.3575 3.59067 -0.0531699 2.33451 2.84335
1349 3 24.8635 24.8385 3.4519 4.63517 1.04375 -0.83403
1350 3 26.7418 26.6438 3.56289 -1.2232 -3.61792 1.62864
1346 3 23.2132 26.7549 3.63201 -2.94456 -1.81191 0.18247
904 1 1.75106 0.0483281 5.2661 6.19923 1.18787 1.9193
907 2 3.48286 1.77089 5.33158 2.95356 0.990295 0.488231
964 3 1.75687 3.47743 5.43735 -0.910407 3.49403 -0.98084
1802 1 1.70998 1.78764 7.10853 -2.49165 -0.235764 0.740841
1865 3 3.58029 3.51252 7.1445 -0.250711 2.7889 3.24972
1861 2 -0.0495518 3.33933 7.25608 0.314091 -6.36302 -3.0514
1807 1 3.26017 1.64269 8.84822 -0.31102 -1.87678 -1.65907
911 3 7.01084 1.8355 5.36926 0.329957 1.46836 3.0959
968 1 5.15798 3.71785 5.39035 -1.04579 1.25516 -4.39805
1806 1 5.03027 1.58934 7.01869 0.849648 -1.69854 -2.22528
1869 1 6.88885 3.39096 7.12007 1.88422 -2.26519 -4.48267
972 2 8.86635 3.4526 5.46546 0.697045 -0.343349 -3.90722
1872 3 8.93792 3.43448 8.70812 1.20995 -1.19543 -2.64177
1810 3 8.86592 1.6333 7.14151 -2.66099 -2.53171 -3.4372
915 2 10.5362 1.70851 5.19174 -1.06469 5.42844 0.298774
976 2 12.3986 3.42694 5.18737 -4.72044 -0.349781 -0.422314
1814 3 12.4025 1.78957 7.09279 3.69332 3.27158 5.01677
1873 1 10.6193 3.41231 7.13756 -3.13518 2.40853 -0.230066
1876 2 12.4686 3.58237 8.85811 0.873595 -2.81596 4.61929
916 1 12.3893 0.0594006 5.31896 0.914986 -1.05312 1.0503
1815 3 10.7476 1.67614 8.83027 1.25393 -5.5754 -2.48039
919 1 14.1108 1.4992 5.41211 -0.974983 2.4815 -3.19549
980 3 16.0056 3.45649 5.4203 0.191952 -4.62922 -0.300405
1818 2 16.0959 1.49599 6.86496 -5.4304 2.99652 2.19734
1877 3 14.3171 3.46534 7.14807 -2.14719 -1.75985 5.71698
1880 1 16.0501 3.4472 8.7699 1.4852 5.68638 2.78945
1819 3 14.2422 1.63725 8.82474 -0.768176 -3.89465 3.27352
1881 2 17.7227 3.50028 7.07357 -2.08497 4.81108 2.26743
1823 3 17.7496 1.67205 8.7785 -1.53626 1.0256 4.71311
923 1 17.8271 1.60257 5.30049 1.58157 -0.847525 -5.52795
927 1 21.3323 1.62258 5.30297 -1.34862 -4.04901 -3.47864
984 3 19.701 3.44585 5.21624 -3.58186 3.87002 1.00828
1822 3 19.574 1.48307 7.16393 1.10925 4.53485 -2.35386
1885 1 21.224 3.59396 7.17987 -0.321974 0.335147 -0.647003
1827 3 21.4815 1.7413 8.65365 0.0172729 -1.984 -0.018925
1884 2 19.5195 3.34275 8.62505 -2.71668 -3.1111 -2.06765
932 3 26.6938 -0.025266 5.38391 -1.31018 1.66013 -0.82259
1829 3 24.8582 -0.0288187 7.0545 -1.99278 -3.04208 -3.55555
931 2 25.0998 1.72684 5.19331 1.0575 -1.08379 -1.75762
988 1 23.0358 3.26918 5.13579 3.88297 -0.508799 -3.96555
1826 3 23.1086 1.7718 6.96195 1.51411 0.424301 0.801839
1889 3 24.9932 3.35988 6.87892 -0.786041 -1.06355 1.09686
1892 2 26.7099 3.48353 8.79182 -0.653222 -3.00644 3.12873
928 3 23.1721 -0.0780791 5.27415 -0.952722 0.710997 -1.79217
963 1 -0.0141403 5.21376 5.37109 -1.71575 1.03797 0.81654
967 2 3.48488 5.30435 5.20033 -1.22407 0.320479 -2.35438
1024 3 1.77258 7.11921 5.27184 -1.55118 -0.151113 1.01662
1862 3 1.79604 5.15932 7.26015 1.41901 -1.18999 4.68778
1925 3 3.51509 7.12693 6.95153 -0.617316 -2.22038 7.72667
1921 3 0.0368603 7.20929 7.06646 -0.827157 0.870011 1.21475
971 3 6.98316 5.33487 5.18601 2.38813 1.09715 0.826515
1028 3 5.29722 7.13788 5.25969 2.89856 1.16956 -3.92084
1866 2 5.18606 5.27837 6.97788 -4.86179 -3.79299 -2.60995
1929 1 7.07586 7.00685 7.21507 -0.365808 -0.247981 4.11177
1926 3 5.32413 8.84131 7.11019 0.533395 3.43318 -1.9045
1031 2 7.37619 8.7959 5.30607 -0.337524 -2.244 -2.98839
1870 1 8.81531 5.22418 6.95017 -4.49477 -1.93941 3.56466
1871 3 7.0013 5.31326 8.84287 3.48387 -5.1389 -1.80528
1032 2 9.01134 6.97314 5.30516 1.96719 5.83921 0.0267802
975 1 10.7601 4.93502 5.38121 -1.29214 -2.74727 0.320551
1036 1 12.4823 7.0594 5.27216 -1.23121 3.6646 6.53409
1874 3 12.5626 5.27484 7.09668 2.93909 5.04615 -1.77218
1933 2 10.606 7.06137 7.0213 0.97017 -2.59606 -3.17793
1934 2 12.5631 8.84502 7.12512 -1.95614 4.77583 3.89295
1875 2 10.631 5.38964 8.7575 -2.25289 0.314763 1.71393
1936 1 12.3702 7.03872 8.77721 -0.320156 -2.36945 -0.980751
1930 3 9.05604 8.75784 7.1125 -3.98626 -0.689319 -2.95556
1932 1 8.98439 7.09143 8.82851 -0.669518 -1.4507 -4.29868
979 1 14.333 5.16801 5.30372 1.58399 8.53033 2.67852
1040 3 16.0082 7.14171 5.28101 -2.66433 -0.364352 -2.43125
1878 2 15.9143 5.4055 7.10745 -2.84639 -3.25088 -1.41463
1937 1 14.2307 7.1173 7.05211 -3.75206 -2.73309 -2.48239
1940 1 16.052 6.94373 8.80676 2.78871 0.932012 0.376296
1938 2 15.9843 8.81336 6.95771 0.0106567 0.0778664 1.56063
1883 1 17.6586 5.23774 8.70741 1.81977 -2.40534 -5.42196
983 3 17.8053 5.10299 5.3686 -0.561381 -2.24772 -2.66957
1941 1 17.8366 7.07342 7.21485 5.99437 -2.57154 -4.91782
987 3 21.5864 5.10619 5.06146 2.59654 2.43262 2.69227
1044 3 19.5458 7.05076 5.39152 7.39604 3.11067 -4.126
1882 3 19.534 5.2104 7.05837 -5.15991 -4.09097 3.61642
1945 3 21.425 7.09692 6.93421 -2.3688 1.53411 0.493873
1887 2 21.5188 5.17228 8.83863 0.453083 -1.65547 2.04683
991 3 24.9182 5.22804 5.30654 1.54315 2.37724 -1.55094
1048 3 23.1229 7.08911 5.19662 -1.77432 -0.578264 -2.25442
1886 1 23.1235 5.19494 7.01738 -0.978638 3.64813 -0.248887
1949 2 25.0421 6.84899 7.15797 -0.04162 1.29462 -0.718027
1051 3 25.0064 8.7563 5.44332 -0.226527 -0.93174 -3.88838
1948 3 23.2019 7.06444 8.7156 2.51735 -0.556152 0.627133
1891 1 24.8344 5.14094 8.61915 -1.82458 0.944579 1.73092
1946 1 23.3501 8.83059 7.00948 2.64852 -2.48328 -3.21753
1922 2 1.7837 9.02629 7.05412 -3.90392 5.60654 -1.10364
1023 3 0.165749 8.97548 5.23 0.471246 -3.27024 4.17752
1027 1 3.43042 8.98708 5.29765 -0.274204 -6.16834 -2.84872
1084 2 1.7243 10.8178 5.18691 0.370986 9.05718 0.14611
1087 3 3.53452 12.339 5.50239 -0.395801 -4.52405 -2.86013
1982 3 1.60276 12.554 7.21783 0.930183 6.40439 0.774685
1985 3 3.60875 10.6139 7.11748 4.01901 -2.57817 1.25275
1083 3 -0.0127403 12.4266 5.38517 0.278877 -0.015254 1.61018
1987 3 3.45407 12.4317 8.8386 -0.127237 0.911048 -4.4348
1088 2 5.27702 10.4827 5.25522 -3.46734 -4.59884 -3.35759
1091 3 7.17567 12.4049 5.21159 -0.221664 -0.404821 2.86419
1986 3 5.43834 12.5559 7.09043 -0.957845 -1.14733 2.81722
1989 3 7.00421 10.6074 7.16902 0.901841 2.72368 1.79299
1990 2 8.80936 12.3381 6.98719 -0.957022 1.47759 1.36703
1092 1 8.86887 10.6865 5.20555 2.38707 -0.604981 -1.26184
1035 2 10.7504 8.86478 5.19796 3.62384 -0.487874 0.314799
1095 1 10.7547 12.5757 5.20528 2.79588 -3.36134 3.93482
1096 1 12.4013 10.5657 5.21149 -2.29684 0.704029 0.420092
1993 2 10.6115 10.7475 6.90302 0.778943 -3.23217 -8.08646
1994 1 12.3579 12.5427 6.95824 1.1217 3.53157 4.4333
1996 1 12.4101 10.7589 8.77017 -2.41396 2.3083 0.521655
1995 1 10.4895 12.5247 8.70437 3.50289 -0.0261095 -0.330448
1935 1 10.7452 8.8977 8.78735 1.38276 0.0198472 -2.72227
1939 1 14.0902 8.88336 8.85369 7.1816 1.16905 8.63579
1039 1 14.2535 9.02725 5.43796 -0.286589 4.85484 3.22632
1099 2 14.0722 12.3669 5.49184 0.463618 -8.15732 -0.594591
1100 1 16.0116 10.6258 5.15327 5.70486 2.30485 5.13051
1997 1 14.3498 10.7641 7.10498 3.90901 0.80091 1.23325
1998 1 16.0262 12.5695 7.13026 -2.86371 0.828948 4.90173
2001 1 17.6317 10.7779 6.92983 -6.17243 -2.62705 -1.63374
1947 1 21.2923 8.94239 8.6395 1.04116 2.01485 0.209648
1043 1 17.9255 8.92794 5.19981 0.892539 -0.623752 0.257976
1047 3 21.3733 8.87639 5.19052 -4.83739 0.664098 1.9193
1942 2 19.5258 9.01044 6.91278 -2.42819 -6.86831 -0.351291
1103 2 17.8369 12.5706 5.18221 -1.94099 -4.85375 -9.22643
1104 2 19.6247 10.8145 5.16046 -0.259306 4.3896 -5.16576
1107 3 21.5186 12.5525 5.24668 3.92973 1.36114 3.21809
2002 2 19.56 12.4993 7.092 0.899549 -2.91861 -1.75263
2005 3 21.4647 10.8445 7.04859 -4.56615 2.32004 2.08593
2007 1 21.4689 12.5634 8.73303 -0.619194 -1.89614 -0.301001
2004 3 19.5023 10.7956 8.68264 3.30862 -1.9668 -2.84578
1951 3 24.8993 8.98829 8.72205 -1.49331 -0.993687 1.73931
1108 3 23.2249 10.7287 5.14013 -1.52647 -1.15766 -0.0745692
1111 1 25.1615 12.6382 5.30789 -2.76301 -0.923218 5.26315
2006 2 23.457 12.6255 7.1768 -4.80702 0.288851 -1.55058
2009 3 25.0163 10.6875 6.84314 -3.21157 -1.22219 2.22017
2011 1 24.8317 12.356 8.83613 -1.90433 0.496836 0.305363
2008 2 23.2303 10.429 8.85758 -0.985322 5.89918 1.38181
1112 3 26.6901 10.771 5.20056 -6.82322 1.87819 -2.94473
1144 3 1.75053 14.3006 5.39381 3.56908 0.794319 -2.24167
1147 2 3.48352 16.0418 5.19985 0.57868 -2.00024 2.50576
2042 3 1.7539 16.0249 7.08171 1.64142 0.693712 1.85448
2045 3 3.50144 14.1733 7.01964 -0.329383 1.99231 0.539451
1204 2 1.5889 17.8053 5.34306 1.747 0.0876796 6.81914
2047 1 3.47741 15.9786 8.84454 4.91182 -0.832367 0.996596
1143 2 -0.0487875 15.9243 5.31016 -1.67413 0.722674 3.43227
2104 1 1.77269 17.6992 8.83243 -3.22492 1.17746 -1.15823
2041 3 -0.0687032 14.2815 7.26379 -3.65547 2.14441 -2.42758
1148 3 5.3146 14.242 5.41722 -5.3236 -4.04793 -1.67182
1151 3 7.0758 15.9576 5.31742 -3.24905 3.86655 -1.84287
2046 3 5.23167 15.9489 6.90512 1.13497 -5.29466 3.92847
2049 2 7.10202 14.0497 7.17838 -1.16746 -3.39607 0.00830466
1152 1 8.7607 14.1684 5.50012 1.26781 -1.54453 0.607179
2048 3 5.3523 14.2604 8.77199 3.88647 -6.94568 1.06781
2050 1 8.92928 16.1468 7.16827 3.92808 1.83114 -4.48435
1155 2 10.6427 16.0966 5.45527 1.91025 -2.41148 -2.22647
1156 1 12.4941 14.1219 5.20141 2.01462 5.39275 -6.00566
2053 2 10.5053 14.091 6.97299 5.5365 -7.90711 4.7271
2054 1 12.3906 15.9394 6.95164 4.27901 2.61158 1.81666
2056 3 12.2829 14.189 8.79565 2.59581 2.67286 2.2942
1212 2 8.90055 17.7891 5.324 -3.39543 -1.14078 4.70799
1159 2 14.0606 16.1377 5.2891 2.40685 1.40461 1.5098
1160 1 15.9379 14.1292 5.09421 4.45499 1.0468 -0.471386
2057 2 14.1776 14.3079 6.88698 0.497112 -1.7982 1.80401
2058 1 15.8516 16.075 6.94752 -3.38336 -4.33748 0.765363
2061 2 17.6934 14.225 7.06851 -2.96923 -3.86577 3.33805
2063 3 17.7233 15.9203 8.84242 -0.185129 -5.60033 -4.39123
1163 2 17.8386 16.0779 5.40672 1.55755 -3.10278 6.10818
1164 1 19.6896 14.1134 5.37319 3.79191 -3.21146 3.78814
1167 1 21.2796 16.2008 5.27577 0.259767 6.06222 -1.97188
2062 1 19.558 16.0643 7.03726 2.65083 -1.44651 3.51376
2065 2 21.5681 14.3563 7.01585 -3.80069 4.20885 -0.585766
1168 1 23.3437 14.3199 5.27216 3.44464 -1.748 0.914777
1171 1 25.0886 16.1372 5.25101 -1.78309 1.6603 -0.129287
2066 2 23.0377 16.1142 7.11206 0.548947 0.738493 2.91043
2069 2 25.0556 14.2719 7.18541 -2.51317 -1.57969 -6.03013
2129 2 24.9295 17.6264 7.1207 -0.342857 -6.72054 -3.42538
1228 1 23.1719 17.7798 5.3859 3.02457 -4.13573 1.94863
2105 2 3.5031 17.9523 6.95644 -2.63071 3.4226 1.41162
1207 3 3.31157 19.6186 5.16539 -2.16278 1.56295 1.88932
1264 2 1.54113 21.5856 5.18584 4.2811 -3.09833 2.43718
2102 2 1.59047 19.6893 7.1377 -2.81088 3.37758 3.71489
2165 3 3.37153 21.3261 6.84705 0.589863 -2.8823 3.4581
2107 1 3.31022 19.4243 8.77945 3.82762 -0.824509 2.3574
2164 2 1.93454 21.3361 8.77255 -0.603317 0.0499949 1.34835
1203 3 0.00284806 19.6723 5.35504 2.58645 2.5013 -0.441753
1208 1 5.27983 17.9229 5.21389 -4.93104 1.5422 -0.841707
2109 2 7.07109 17.8772 7.11713 3.72869 3.62925 3.17086
1211 1 7.18649 19.6892 5.37239 1.26357 1.96216 1.03504
1268 1 5.26048 21.4558 5.15642 -0.544047 3.66459 3.99523
2106 2 5.27213 19.7597 6.72021 1.26806 0.533261 0.988348
2169 2 6.86692 21.3236 7.22357 4.53514 -2.15842 -2.04906
1272 1 8.81247 21.541 5.22112 -1.73852 -2.53054 1.4355
2116 1 12.2443 18.0129 8.61173 -4.30854 3.38126 -1.11562
2110 3 8.87681 19.7945 7.19736 -2.66014 6.1631 -2.22416
1216 3 12.3698 17.9886 5.19591 -1.00543 2.06886 4.21741
2113 2 10.5794 17.9355 7.18592 -0.22481 0.343839 3.95005
1215 1 10.4749 19.6236 5.29958 -0.506677 -5.366 -3.59678
1276 3 12.2694 21.3803 5.39768 -3.42217 0.452738 -4.10374
2114 1 12.3208 19.611 7.03518 -0.255944 -0.981037 7.21879
2173 3 10.6563 21.4975 7.12663 -0.196581 -1.20446 -7.75194
2172 1 8.93076 21.4512 8.8357 -3.8962 0.802473 0.250239
1220 1 15.962 17.9716 5.3276 0.174916 -4.23812 -0.306892
2117 3 14.263 17.9507 7.02222 2.18944 -3.64431 -2.83732
1219 2 14.071 19.8173 5.34613 0.997291 3.37636 1.19882
1280 1 15.8591 21.5192 5.51733 -0.631056 -1.8456 3.80107
2118 2 15.9639 19.8018 6.98339 -8.12887 0.837336 0.607252
2177 3 14.1058 21.3019 7.1411 -0.82439 -2.16942 -0.696157
2180 3 15.9408 21.5575 8.7074 -1.35368 -0.898458 0.44818
1223 2 17.7673 19.8208 5.28924 4.66374 2.0016 0.612231
2123 1 17.7672 19.7514 8.7585 0.61351 6.04613 -0.669929
2119 3 14.1674 19.6988 8.80908 -3.70372 -1.75694 -4.1414
2121 2 17.858 17.9085 7.3574 2.91726 -0.475278 4.61861
2125 1 21.3384 18.0302 7.22799 -0.940386 -1.48529 -0.775439
2181 1 17.8241 21.422 6.92954 -1.50949 -4.5113 -5.21133
1224 2 19.6876 18.129 5.26066 1.40645 -2.14013 -1.69209
1227 2 21.4253 19.5162 5.33772 -0.710761 -1.89902 -0.406352
1284 1 19.6222 21.676 5.3071 -5.43127 -6.30722 1.05217
2122 1 19.6522 19.7841 7.11537 0.221583 -0.135215 0.501549
2185 1 21.5371 21.4094 7.12561 -3.8474 4.9989 2.32158
2124 1 19.5652 18.021 8.85277 3.99624 0.57352 -4.24612
1231 3 24.9097 19.6033 5.12084 0.490466 -2.8535 0.122765
1288 3 23.138 21.4369 5.34039 4.22009 -5.47435 2.52282
2126 2 23.3419 19.6276 6.95185 3.30739 3.21718 5.39539
2189 1 25.0363 21.5169 7.06362 -0.521624 -3.25871 2.19903
2131 1 24.7346 19.7562 8.8524 1.74482 -0.54343 0.120697
2192 2 26.6203 21.421 8.74439 -2.59229 -0.0118987 -1.63873
1267 2 3.51466 23.294 5.28626 -1.40132 3.03151 3.64508
1324 1 1.64175 25.09 5.17289 -1.35588 -0.272857 2.81438
2162 2 1.76946 23.2354 6.92815 4.9382 1.27588 4.16334
2225 2 3.55714 25.0025 7.07794 -0.376558 3.84918 -2.61742
2224 2 1.71426 25.0637 8.84856 1.84137 6.4879 0.199857
2227 1 3.32965 26.6728 8.77773 4.41575 -3.56156 0.704834
1271 3 7.04271 23.3113 5.33298 -0.795056 4.47587 0.427886
1328 2 5.09983 24.9343 5.17834 -1.09937 -5.57049 -1.39678
2166 1 5.06387 23.0387 7.23329 -0.886602 0.833917 -1.76941
2229 2 6.9261 25.1728 6.99069 2.95266 2.3299 -0.155458
2170 2 8.67944 22.9811 7.06941 5.28467 1.56688 1.50887
1332 3 8.76781 25.0051 5.29783 -1.76976 3.88571 3.19654
2232 3 8.53256 24.971 8.68843 5.67681 -1.65393 2.99969
2226 1 5.14338 26.7451 7.15272 0.144829 -1.09984 7.41799
1275 2 10.5777 23.2844 5.3243 4.04146 2.85687 0.217307
1336 1 12.281 25.1824 5.34711 -3.96534 1.57373 -1.62037
2174 3 12.4765 23.3078 7.08263 -1.73293 1.13791 -3.48864
2233 3 10.4015 25.0151 7.02548 7.77763 4.01692 0.669267
2236 3 12.1377 25.0905 8.85809 0.261284 2.30494 -0.191341
2175 3 10.5137 23.3061 8.79817 3.3217 -2.67525 0.561546
1279 3 14.1198 23.3273 5.47518 -1.49425 -2.44567 2.74281