ITEM: TIMESTEP
46200
ITEM: NUMBER OF ATOMS
13500
ITEM: BOX BOUNDS pp pp pp
-7.7858595686350895e-02 5.3597858595679604e+01
-7.7858595686350895e-02 5.3597858595679604e+01
-7.7858595686350895e-02 5.3597858595679604e+01
ITEM: ATOMS id type x y z vx vy vz
7 1 3.61936 1.55777 1.52718 2.53835 0.471406 -0.480098
64 1 1.69595 3.17644 1.63385 -0.57886 -4.24226 -6.41398
902 2 1.82081 1.47622 3.47568 0.744727 0.244849 2.42651
965 1 3.61612 3.38944 3.31343 -3.38939 -1.19712 -0.0942523
2 2 1.87978 1.55572 -0.0787015 4.60873 -1.41203 -2.80626
961 2 0.173459 3.36798 3.4837 -2.19023 3.0056 2.01444
3 1 0.125609 1.56099 1.64346 3.08733 1.69348 -0.638002
65 3 3.61938 3.38389 -0.0606336 -0.9958 -3.82136 1.24182
905 1 3.6933 -0.062616 3.44285 -0.341393 3.03633 -2.26908
11 3 7.16412 1.53983 1.62743 0.119413 -0.0288896 -3.75007
68 2 5.39885 3.45749 1.74009 -2.09197 4.79024 -1.55294
906 3 5.50651 1.8125 3.57643 -4.49095 0.621914 -1.61731
969 3 7.17664 3.58051 3.52178 -3.42272 1.25 -0.980848
8 2 5.09029 0.0346095 1.65717 -3.92252 4.39874 -0.645964
72 2 9.05589 3.25424 1.88187 -0.188965 4.57254 3.5147
12 2 8.99507 -0.00988386 1.66522 -0.220522 -3.72736 5.59754
910 1 8.92831 1.41433 3.53254 -1.59176 -2.8223 0.547721
15 1 10.7721 1.51778 1.60274 -1.69304 -1.73522 -4.00667
76 2 12.6722 3.38047 1.55002 -2.75042 0.0038185 1.85233
914 2 12.4698 1.65774 3.41518 2.50677 -4.12616 0.341544
973 1 10.7308 3.37278 3.39782 -0.846664 5.16555 6.16931
913 2 10.6912 -0.032365 3.52356 5.74622 -5.65344 1.40542
19 1 14.2773 1.58836 1.60864 4.43078 -0.221334 1.65931
80 2 15.965 3.4596 1.74996 1.50907 -3.50433 -4.24374
918 1 16.0008 1.62277 3.36776 -2.7857 -0.651683 -4.48908
977 2 14.1832 3.52354 3.53909 0.794006 5.76138 -0.909743
23 1 17.8285 1.74376 1.56093 -2.27212 -1.82608 -2.13047
981 1 17.9454 3.45504 3.24996 -1.6756 2.08469 -5.35737
921 1 18.0171 0.10999 3.51105 0.523104 -1.20594 4.48637
27 1 21.4217 1.73482 1.36179 4.87289 -5.12354 1.75894
84 1 19.7812 3.5274 1.69623 2.1673 -2.03061 -5.07041
922 2 19.6749 1.74353 3.22018 5.31481 -4.99255 4.5694
985 2 21.4395 3.4829 3.32019 -1.19424 -4.26354 -0.960782
925 2 21.2206 0.0160636 3.47604 0.98723 -3.65669 0.965589
31 3 25.01 1.93758 1.60647 -5.80115 -0.768239 -1.92121
88 3 23.3417 3.55503 1.6777 -3.51565 -0.0698873 2.8526
926 3 23.0823 1.57056 3.49068 -5.03578 0.415823 -2.63287
989 3 24.9802 3.53538 3.63905 0.550665 -1.26502 1.30751
28 2 23.3054 -0.04473 1.5777 7.49812 -2.08211 0.799132
929 3 25.0105 -0.0245193 3.50796 0.154361 0.253596 -0.697976
32 3 26.6426 -0.00514022 1.79106 0.685657 -4.87571 -0.242453
92 1 26.5903 3.62069 1.64592 -1.96802 2.99748 -2.62012
67 3 3.51901 5.10831 1.71079 1.8998 4.03163 2.38952
124 1 1.80221 6.98203 1.56546 2.73245 0.449948 2.87394
962 2 1.78776 5.13743 3.47134 -0.734448 -0.972952 0.022163
1025 2 3.56773 6.95564 3.36899 6.9505 1.05709 1.06131
1021 2 0.054902 6.94211 3.46338 -2.34157 -1.92807 -1.369
1022 1 1.7085 8.74729 3.3118 -2.68763 -0.855396 -0.467281
123 2 -0.0615907 8.76496 1.7671 -2.5859 2.72681 -1.10679
62 2 1.59734 5.17325 0.0986944 -2.61574 -3.60576 0.575783
127 2 3.49717 8.80822 1.39453 -1.99677 -4.52123 -1.21691
71 1 7.2748 5.31076 1.58811 1.12652 -3.35447 -3.16019
128 1 5.51832 7.0649 1.79452 5.35785 -3.08913 -3.5727
966 3 5.41904 5.20452 3.39969 3.88802 0.755759 2.03175
1029 2 7.07894 6.89134 3.49394 -1.49456 -4.48667 -1.64753
131 2 7.11934 8.8082 1.4866 -2.32644 1.52151 -1.15901
66 3 5.32392 5.32822 0.0113831 -2.75857 0.855951 -1.4094
1026 3 5.33205 8.75168 3.48706 -0.233312 0.584279 0.342234
70 2 9.07696 5.15723 0.00595443 -0.834048 1.17172 -5.24679
970 1 8.88793 5.102 3.292 -2.07917 -1.04258 -0.906649
132 2 8.90659 7.10788 1.67516 -1.38804 4.17881 -2.32108
75 3 10.7727 5.31847 1.62996 -0.933458 1.71704 3.49349
136 2 12.602 6.96301 1.67136 5.91586 -0.163559 -1.64775
974 1 12.4356 5.25367 3.54557 1.29118 -3.08469 1.76156
1033 1 10.6686 6.95244 3.58142 -1.98414 -2.18888 -3.14063
1030 3 8.90223 8.85605 3.41043 -4.28806 2.65237 -1.68979
133 1 10.6836 7.05382 -0.0479177 3.14683 -3.77469 -2.74598
134 1 12.5219 8.82379 0.1263 1.10855 0.473062 5.02703
135 2 10.762 8.71702 1.88676 -4.53692 -4.98434 1.23408
1034 1 12.515 8.6857 3.6586 3.07862 -6.08637 5.9892
79 1 14.1423 5.20841 1.67441 -3.01637 -1.87964 2.71145
140 3 15.963 7.10225 1.95818 2.55185 -1.37168 3.68652
978 1 15.9272 5.16208 3.58027 -0.251473 2.27214 -1.99867
1037 2 14.1673 7.05628 3.62667 1.63098 0.993581 0.530813
137 2 14.3186 6.89411 0.0504316 2.23307 -1.19811 -0.60724
139 1 14.2922 8.67469 1.83297 5.13687 -3.87571 -2.59264
141 3 17.7122 7.07785 -0.050697 -1.34052 -3.04844 2.11492
83 2 17.8932 5.29576 1.73692 -2.84049 -0.483261 2.63881
1041 1 17.8837 7.15604 3.40954 0.972819 -1.23141 5.8212
87 1 21.539 5.23977 1.65431 -0.189761 -0.0932369 -4.86812
144 2 19.6754 7.12655 1.62996 4.34955 0.716079 -4.26746
982 3 19.724 5.34925 3.4337 -4.15952 0.435353 1.50566
1045 3 21.5127 7.10172 3.42394 -1.3736 -3.76236 1.09906
147 3 21.4113 8.70239 1.81537 0.722157 5.34853 1.15772
142 3 19.5779 8.83569 -0.0738802 0.704049 7.94385 -0.19143
82 3 19.566 5.22938 0.0672365 -0.16896 1.56851 -1.63774
1042 3 19.5396 8.85904 3.47813 -1.79656 -3.41699 -0.431297
145 1 21.4709 7.158 -0.0698919 0.989486 4.31612 3.24436
91 3 25.0492 5.31454 1.91489 0.759756 2.58499 -0.853908
148 3 23.2956 7.01174 1.63507 0.981386 0.377356 -1.63682
986 3 23.1718 5.22928 3.48726 0.159367 0.171784 1.66243
1049 3 25.1302 7.13228 3.65181 -0.60179 3.57988 -1.48302
1046 3 23.353 8.85635 3.4833 4.62819 7.206 1.77865
151 3 25.0603 8.77773 1.71161 -2.07888 1.25086 -0.0591908
146 2 23.1408 8.78823 -0.0421415 -1.29767 -7.26572 -2.88388
86 2 23.22 5.24767 -0.0280283 0.271616 1.22781 6.03249
184 1 1.67686 10.6022 1.83365 -6.53617 4.42981 0.816118
187 3 3.42531 12.5501 1.81801 2.48072 2.14019 2.28412
1082 2 1.70146 12.2841 3.53658 -1.00829 -3.35601 -1.29345
1085 3 3.47569 10.532 3.36515 -0.802819 0.995232 2.00415
1081 3 0.0817717 10.6279 3.70577 -0.0105403 0.575699 0.351062
183 2 -0.0509359 12.4418 1.69599 -0.895628 1.74368 0.960254
181 2 0.0067372 10.8291 0.0290354 -0.904612 1.59665 0.777084
185 2 3.50545 10.6629 -0.0301092 0.671227 0.0172616 -0.691484
182 1 1.71371 12.2988 -0.00355628 0.305502 -3.31761 2.16662
188 1 5.28874 10.5067 1.57648 1.07897 1.55154 -1.87429
191 2 7.0536 12.1556 1.69692 5.53866 5.21923 -2.54476
1086 3 5.34443 12.2772 3.45817 -1.72065 -2.02568 -3.02387
1089 3 7.13299 10.5783 3.50962 -4.14257 1.67317 1.78372
1090 2 8.93889 12.4705 3.41211 2.75886 3.5424 -1.86291
192 1 9.00791 10.456 1.62776 3.77153 -0.361973 2.4255
190 2 9.03478 12.619 0.140374 -4.30552 0.214162 -2.0783
195 1 10.7492 12.6444 1.8887 4.15581 0.659522 -1.86398
196 1 12.5025 10.78 1.76682 -0.355776 6.36534 -3.73247
1093 2 10.8393 10.5905 3.50181 -2.72445 -5.10481 2.19889
1094 2 12.4528 12.3892 3.64557 2.43025 -1.13787 4.11208
194 1 12.5908 12.4431 0.0377806 -3.32824 -2.28854 0.315811
193 2 10.6834 10.624 0.0190717 -0.818235 4.60005 2.47539
1038 2 16.1154 9.0096 3.61701 1.80427 0.027914 -0.963149
199 1 14.2394 12.4891 1.87051 -0.459472 -2.38487 -3.8641
200 3 16.0894 10.6135 1.6825 1.6122 3.4885 -0.0508232
1097 2 14.0691 10.6204 3.5002 5.20673 -1.08168 0.194899
1098 2 16.0265 12.3649 3.47085 -1.02234 -2.98096 2.48326
197 2 14.1676 10.7498 0.0113791 5.23296 -1.61302 -4.16769
203 3 17.7519 12.4077 1.69541 1.15629 -1.91331 3.54419
198 3 16.0371 12.3972 -0.0351775 1.12337 -6.94222 3.39154
138 2 15.8711 8.89164 -0.0531252 6.9432 -0.33556 2.52903
143 3 17.9029 8.89308 1.59334 -2.37592 3.45146 2.34804
1101 3 17.8548 10.5779 3.5698 2.97589 -1.27322 -2.78541
204 3 19.6323 10.5627 1.62185 4.90017 -1.46796 1.35763
207 3 21.5815 12.2164 1.76477 1.78942 0.784561 -2.56653
1102 3 19.5645 12.2797 3.45258 -1.15545 3.63812 -1.6211
1105 3 21.4713 10.703 3.44004 1.40208 -0.0920469 -5.52066
205 3 21.4894 10.4989 -0.0448734 -2.50733 1.82439 0.417109
208 3 23.3071 10.4124 1.62814 2.45073 1.3555 0.98752
211 1 25.3514 12.256 1.80799 -0.991446 1.26687 0.370363
1106 2 23.3777 12.2856 3.41285 2.04148 -1.20657 -5.69788
1109 1 25.0122 10.6608 3.47964 0.334855 -1.97868 1.98969
209 1 25.0599 10.7055 0.00647288 3.28818 -2.3278 -0.383696
206 2 23.2768 12.4708 0.13901 -3.98639 -4.89881 1.44856
244 1 1.76257 14.2446 1.55787 -3.24502 3.36994 -0.108462
247 1 3.56521 16.0229 1.82807 5.34752 4.5474 -2.94922
1142 3 1.83126 16.0256 3.5612 -0.193691 2.67564 0.0870412
1145 3 3.52129 14.1696 3.45677 -3.83277 6.85451 0.25395
243 2 -0.0621206 15.8609 1.92684 0.62977 -3.28385 0.666723
242 2 1.74181 16.1843 0.0499018 2.51672 1.18047 5.70249
241 1 -0.0435792 14.3584 -0.0183912 0.651678 1.39752 -1.35086
304 1 1.77703 17.7626 1.79432 -5.38243 3.11549 -0.804518
1141 1 0.0223298 14.1943 3.5974 1.13617 2.38567 2.46101
1201 1 0.0382595 17.6869 3.4633 1.48456 -3.10719 3.19183
248 2 5.37427 14.2769 1.69093 1.63391 -0.572717 -0.0254932
251 2 7.08 16.0573 1.67222 3.14329 0.428938 0.155062
1146 1 5.42066 16.1024 3.67559 -3.71248 0.74342 2.7926
1149 1 7.18261 14.3329 3.61337 -2.91442 7.15698 -0.674253
308 1 5.47338 17.6495 1.66073 -5.5367 -0.73127 1.52355
1150 2 8.69695 16.2534 3.68068 -0.276926 2.56542 -0.811689
252 1 8.70169 14.2559 1.76328 1.5177 -0.129884 1.16165
1209 1 7.03032 17.7392 3.7598 0.0216022 -4.17226 -0.0918167
250 1 8.95638 15.8667 -0.0740671 -1.61827 -4.46823 -0.0351299
255 2 10.7496 16.1254 1.93651 0.659168 -1.39604 4.34771
256 2 12.3445 14.2778 1.83872 -1.28762 -0.217649 -2.59304
1153 1 10.4812 14.2342 3.44419 -2.68174 -1.24582 0.603021
1154 2 12.3624 16.0638 3.67553 0.850337 0.222705 -2.44205
253 2 10.7638 14.3547 0.106144 0.434645 1.86213 2.93502
254 1 12.5843 15.999 0.167274 2.59112 2.35616 -0.673245
313 2 10.7343 17.7668 0.134518 -2.90732 1.51459 3.06948
259 1 14.2332 15.9389 1.899 -1.69502 -2.98543 2.62788
260 2 16.1265 14.2192 1.72843 -0.479764 1.51763 -3.74543
1157 1 14.1525 14.1834 3.45818 5.89424 1.13474 -1.78971
1158 2 16.1004 15.9171 3.54954 2.22738 3.47228 0.804711
258 3 15.9665 15.9916 0.114908 -3.52541 -0.679792 2.1729
263 1 17.7366 15.7776 1.85921 -1.23608 4.71215 0.793523
1221 1 17.8712 17.7836 3.4108 3.3373 3.69985 2.60287
1161 1 17.9175 14.123 3.5391 -3.40751 -0.896023 -1.54584
264 2 19.7945 14.166 1.71338 4.80881 -4.29528 0.475211
267 1 21.4575 15.8888 2.07504 -1.88253 -6.92996 -1.23431
1162 2 19.6493 15.9798 3.51999 -0.92557 0.875447 -3.88778
1165 3 21.5484 14.0541 3.59544 0.0511931 -1.67963 -1.65727
262 1 19.7683 15.9627 0.0790188 -2.57698 -0.183262 0.923459
325 2 21.4578 17.7744 0.0375553 -2.185 -1.54301 -1.41203
1225 1 21.4915 17.7272 3.50454 -0.27401 -1.53635 -2.96596
261 3 17.8587 14.2253 -0.0107498 1.80126 1.82483 0.136221
268 1 23.4264 14.1501 1.80191 -0.729983 -2.54352 -3.0421
271 1 25.149 15.9125 1.57268 1.90458 -3.15121 -1.5854
1166 2 23.5287 15.929 3.28892 2.09716 1.29175 -4.08268
1169 2 25.1672 14.1756 3.45056 1.1414 -1.26912 -0.566536
269 1 25.1294 14.1738 -0.00488856 2.07221 0.700839 0.486549
328 2 23.2191 17.5845 1.71324 -1.39382 0.097164 -1.05191
329 1 24.9724 17.8096 0.0248346 -1.02184 -0.0505036 -1.31212
272 2 26.7027 14.3109 1.75659 -2.65101 0.783472 -0.599132
1205 2 3.52527 17.832 3.47474 2.34817 4.24986 1.3502
305 1 3.50634 17.9256 0.0183799 1.69814 -3.22064 -3.30825
307 1 3.67441 19.5168 1.59196 -1.38095 -1.6041 3.99855
364 2 1.78349 21.1518 1.71751 -2.23085 1.92395 0.970792
1202 2 1.66118 19.3894 3.47436 2.89257 -4.72394 1.53045
1265 3 3.6032 21.2647 3.61703 4.00802 -3.39583 2.66611
1261 1 0.073393 21.3483 3.58127 -3.38697 1.75166 -0.925876
365 2 3.6711 21.3802 -0.044759 -4.59229 1.88535 -9.37027
302 1 1.697 19.5336 -0.0282004 -0.862917 0.170532 6.87552
311 1 7.08364 19.6198 1.64293 -2.72328 -2.47653 -3.98608
368 1 5.33198 21.4952 1.63931 0.915366 -0.293555 2.14854
1206 2 5.40932 19.5454 3.6797 0.780112 1.36528 -1.16146
1269 1 6.97079 21.2737 3.522 -4.92865 -2.3797 1.03479
309 2 7.15911 17.8231 0.00947396 1.58342 -0.0372228 5.44905
312 1 8.93707 17.9043 1.79246 0.761157 2.22699 2.44609
316 1 12.5059 17.8976 1.96132 0.0787968 1.65906 5.52386
1213 1 10.7754 18.0255 3.64456 -3.41342 2.85241 -1.08128
372 1 8.93811 21.2374 1.7511 0.922633 -4.27587 -0.294769
1210 2 8.89965 19.7096 3.47154 -0.903026 -1.45705 -2.67536
315 2 10.6333 19.6153 1.67552 -1.36583 4.30263 5.88039
376 1 12.5679 21.4957 1.91343 -0.103104 0.136994 -4.8153
1214 2 12.5211 19.5661 3.7731 -3.53136 2.42027 -0.802264
1273 1 10.6923 21.2372 3.61412 0.1023 -2.10411 3.38868
314 3 12.5664 19.5151 -0.0154416 5.60921 0.212453 -5.02954
317 2 14.2396 17.8309 0.0577625 -1.52228 1.39476 2.26426
320 2 16.0872 17.828 1.91355 2.47896 1.24237 -6.19925
1217 1 14.2492 17.8848 3.49359 -2.2036 0.883625 1.75696
321 1 17.7246 17.8906 0.141097 -0.00759267 1.41235 -2.52705
319 1 14.2245 19.7015 1.87776 0.972754 2.37807 0.147144
380 2 15.9714 21.436 1.66887 -0.574364 -2.1134 0.592378
1218 1 15.9951 19.6367 3.78042 -4.24206 -1.51368 0.936903
1277 1 14.2645 21.5032 3.72944 7.01434 -1.38548 3.15229
318 1 15.8496 19.4182 0.0646919 -2.06013 1.89265 0.19907
377 2 14.2266 21.4547 -0.0219245 -1.66385 -0.799936 -3.75017
323 2 17.6279 19.8118 1.87299 1.11828 -4.0896 1.13998
381 1 17.7713 21.4411 0.0263345 -1.45414 -4.05309 -2.25172
324 2 19.5908 17.8407 1.5938 -1.42278 3.18903 -0.998693
1281 3 17.8532 21.3211 3.85321 -2.88349 -5.70432 1.54138
327 1 21.5128 19.4633 1.79408 1.26104 -3.58548 3.78183
384 2 19.3653 21.3541 1.68065 3.69839 0.958367 -1.17594
1222 1 19.4329 19.4673 3.54738 0.73201 0.743351 -1.95576
1285 3 21.5609 21.2557 3.56804 -0.876868 4.95694 1.73971
322 1 19.6367 19.4643 -0.0214207 4.79464 -0.773073 -2.33945
385 3 21.329 21.2678 0.0670474 -1.02749 -4.04043 0.0155596
332 1 26.699 17.837 1.80134 -1.92305 7.0029 2.6729
1229 2 24.9195 17.8666 3.41525 2.32769 -0.0498477 -4.49622
331 3 24.8257 19.5217 1.80568 0.071428 4.6417 1.24466
388 3 23.1729 21.3788 1.80186 1.52676 -0.586896 0.789446
1226 2 23.1588 19.3278 3.4797 3.45775 -2.20535 4.93062
1289 3 24.8582 21.2394 3.53369 -0.273484 -0.177485 -6.05187
326 1 23.2929 19.619 0.0446241 -0.903629 1.75844 -0.619104
392 3 26.6378 21.4171 1.90898 -1.443 6.07394 -2.2145
330 3 26.6674 19.7363 0.0224229 -3.12842 0.868478 -0.295045
389 3 25.0431 21.552 0.151935 1.43665 -2.86304 5.79219
422 3 1.70074 26.6846 -0.0613398 4.1897 -4.12365 1.76062
363 2 0.132812 23.1019 1.81211 2.56306 -1.84742 -1.20566
367 2 3.69722 23.1397 1.87494 -1.60173 2.16086 1.06102
424 3 1.98869 24.8479 1.7498 -1.34973 3.17791 0.277267
1262 3 1.80564 23.1606 3.42938 0.767032 2.1373 3.57929
1325 3 3.657 24.9707 3.39608 -2.45856 -0.400239 -1.98502
1321 3 0.0697334 25.1916 3.67371 0.476494 2.91803 -0.331747
421 3 0.149165 24.8902 0.00550447 -3.43222 0.690156 -4.3669
425 2 3.73112 24.9076 0.0362792 -2.16089 -4.18229 -2.64765
427 3 3.4624 26.7183 1.84363 1.10538 0.209602 0.541812
362 1 1.88194 23.0276 -0.0235756 4.50849 -1.39432 3.08361
371 2 7.2304 22.8967 1.79199 1.87967 1.22416 -1.75217
428 2 5.41297 24.912 1.66501 4.13575 3.18716 -2.22821
1266 3 5.39264 23.2297 3.60077 0.318913 -1.46249 1.93556
1329 3 7.08872 24.9499 3.54226 4.17503 5.25345 -0.281362
431 3 7.27708 26.7565 1.7673 0.451075 8.22727 3.80548
426 3 5.36981 26.6873 0.0338514 3.76407 -1.02077 -0.772046
366 1 5.42022 23.3356 0.00876431 -1.152 3.52533 -0.260308
370 1 8.80648 23.2677 -0.0252878 -1.19182 -2.7454 -2.03333
1326 3 5.31775 26.6318 3.60166 1.73439 -7.23757 0.196401
432 3 8.85667 24.761 1.78561 -1.29573 0.919818 -1.02472
1270 2 8.98277 23.0648 3.52381 1.45774 -2.59661 3.89658
375 2 10.7054 23.209 1.6877 -6.02362 4.28264 -0.671276
436 1 12.4584 25.0404 1.82553 -1.85068 -5.41099 4.57806
1274 2 12.1844 23.2352 3.62991 -1.51388 5.61802 -2.11476
1333 1 10.7047 24.9345 3.52214 0.559942 -2.24076 1.23069
374 1 12.5913 23.073 0.0257784 4.58863 -1.20095 -0.12044
430 3 9.01864 26.5605 0.134472 4.30706 -1.02753 -6.10263
433 3 10.7983 24.8325 -0.0510242 -0.258773 -0.432901 5.27286
379 2 14.2828 23.165 1.95425 0.260037 -4.44519 3.29783
440 1 16.1367 24.9051 1.97683 -3.53697 -2.64559 -1.64441
1278 1 16.1136 23.1568 3.71794 -1.72105 -0.822402 -0.316113
1337 1 14.1361 24.9184 3.59413 2.06824 0.648138 -2.31355
378 1 16.0993 23.3572 0.048743 0.634597 -2.22122 -0.474979
438 1 16.1023 26.5183 0.0404269 -2.02608 0.313068 1.27999
439 2 14.4082 26.6208 1.65498 -5.8971 -1.27198 0.498105
437 2 14.098 24.8804 0.15091 4.32675 -6.56744 4.36492
443 2 17.7004 26.5793 1.90154 -2.47713 -0.0560359 1.85222
383 3 17.9127 23.3841 1.8174 7.25954 1.44371 -1.19105
1341 2 17.8285 24.8639 3.79731 1.20667 -1.04584 -1.24006
441 2 17.8853 25.0113 0.0457484 -1.90147 -5.43374 -1.77675
1342 3 19.5396 26.7302 3.5053 -1.27999 2.52399 -0.684947
387 3 21.3608 23.074 1.7556 0.0601266 0.0347602 0.595433
444 3 19.7046 24.9777 1.8558 -1.61006 1.47914 1.5487
1282 3 19.6795 23.021 3.56797 1.18779 -5.27694 1.28952
1345 3 21.4413 24.8647 3.52925 -0.570354 0.385967 -0.737708
442 3 19.669 26.7416 0.0405356 4.835 -0.114763 6.44615
382 3 19.6683 23.2402 -0.062122 -0.224583 0.548007 5.17749
391 3 25.0173 23.1881 1.85586 2.03537 3.74485 -0.403007
448 3 23.273 25.0346 1.85068 -2.67161 -0.225403 -1.00809
1286 3 23.2346 23.1682 3.65527 0.877193 -0.695888 0.891733
1349 3 25.0933 24.8684 3.65313 -2.7247 -2.156 -2.24395
1346 3 23.1326 26.6 3.62251 -5.01251 4.08887 -1.59131
449 3 24.9568 25.0443 -0.047449 4.30442 -1.97694 0.572091
452 3 26.7041 24.9768 1.97576 0.729379 2.25909 -0.191676
386 3 23.1294 23.0589 0.175273 1.67048 1.74083 0.382506
1350 3 26.7021 26.6725 3.64371 -0.699834 -7.23433 3.70923
907 2 3.44884 1.71091 5.26969 2.89301 -0.451106 3.5019
964 1 1.82817 3.35271 5.19857 -1.54995 -3.53643 -1.20019
1802 1 1.74298 1.65139 7.12511 4.66178 -4.46304 3.84576
1865 1 3.57177 3.44909 6.9192 2.33482 2.91744 0.64465
1861 2 -0.0534957 3.39731 6.9555 2.71364 -0.338492 -1.79343
1805 2 3.73091 0.0279227 7.00252 -1.91068 -3.24518 -4.21389
903 1 0.0837028 1.43931 5.14462 -4.41102 -3.56065 -0.453872
1807 1 3.56662 1.68222 8.85208 -3.64194 2.74038 -0.351456
1801 2 0.108466 0.018149 7.18573 -4.89636 -4.1828 -6.99217
1804 1 1.79799 -0.0267705 8.86439 -1.45331 -3.3321 0.149698
904 1 2.03054 -0.0642993 5.17746 -0.559199 1.60509 -4.47602
911 2 7.20888 1.64393 5.24797 -3.16157 0.62448 3.14017
968 1 5.26046 3.56772 5.06882 2.24152 -0.825055 -5.53123
1806 2 5.39947 1.77245 7.09212 0.240506 2.15242 1.96477
1869 1 7.0405 3.57168 7.02555 -1.17586 2.10328 -2.13476
1810 2 8.77161 1.68249 7.06638 1.08432 1.77373 -5.97343
1868 2 5.42057 3.52356 8.6605 -4.15026 0.628404 1.67369
1811 1 7.14594 1.5375 8.76821 -2.19549 -2.7971 1.81704
1809 1 7.04494 -0.0608472 7.1297 4.57453 -1.75434 -1.2131
1872 3 8.75613 3.40117 8.84594 0.720523 -3.83342 -1.34396
972 2 8.97241 3.4761 5.2544 2.41784 -1.39109 -3.27902
915 3 10.7192 1.77562 5.32061 -2.15904 -0.476477 2.32083
976 2 12.3751 3.42133 5.33042 0.649503 2.47189 -1.98734
1814 2 12.638 1.75085 7.12052 -4.35011 -0.349475 -2.42986
1873 3 10.7947 3.43285 7.23001 3.06403 4.06319 2.25451
919 1 14.1749 1.72338 5.23611 2.69628 2.03225 4.80917
980 2 16.1763 3.44125 5.07458 4.47613 3.79855 -1.50386
1818 2 15.8757 1.61473 7.00883 -0.647952 0.203616 2.68159
1877 1 14.099 3.46267 7.19476 -0.272007 -0.833801 -2.16939
1880 1 16.0459 3.21986 8.82186 -0.810454 3.65745 8.70737
920 2 16.0738 0.00728683 5.13996 0.927018 -3.67227 1.02454
1881 1 17.8293 3.45827 7.16753 3.43981 2.61395 0.00238445
923 1 17.9038 1.8312 5.19025 2.91846 -0.335365 -5.051
927 3 21.3231 1.67049 4.9909 1.16055 2.33883 1.39534
984 2 19.6008 3.48501 5.15137 2.6893 -3.54402 2.97284
1822 2 19.6374 1.76516 7.1397 -2.71916 0.367752 -4.01814
1885 3 21.3378 3.41644 7.08901 -2.18203 -1.41841 3.76037
1827 2 21.2886 1.74383 8.71854 -2.9379 4.74677 -0.638054
1824 3 19.5219 -0.0607481 8.7929 -2.25598 -5.73829 -0.476228
924 1 19.5908 -0.0541195 5.36127 -1.76711 2.2861 2.66872
1825 3 21.2498 -0.061556 6.92401 1.2092 2.75097 -3.0572
932 3 26.7475 0.0893359 5.40595 0.196924 0.412352 1.74093
931 3 24.9213 1.78102 5.43868 0.552495 0.184768 -1.47678
988 3 23.079 3.45057 5.15611 0.816576 3.53865 -1.92069
1826 3 23.0425 1.69282 7.02191 -0.26773 -2.10671 0.705816
1889 2 25.0773 3.53164 7.1979 -1.14453 -0.328812 -2.22184
1831 3 24.8745 1.68502 8.82141 -2.87856 3.08691 -0.905817
1828 3 22.9996 -0.0850869 8.76025 4.50821 -4.35825 -3.36155
928 3 23.0989 0.0407042 5.27919 2.18822 0.896368 1.26783
1829 3 24.8469 0.134618 6.98032 2.1536 -0.636724 -0.382672
1888 1 23.0051 3.59831 8.73847 -3.92485 -0.717032 -1.79508
963 1 0.170441 5.28303 5.29107 -1.84219 -0.0565315 -3.11156
967 2 3.59466 5.14504 5.24664 3.3402 -1.89163 -2.45028
1024 1 1.84854 7.12344 5.17596 -2.54033 2.04669 4.65262
1862 2 2.03885 5.32999 7.1345 0.588507 6.39021 -3.23455
1925 1 3.50473 7.06853 7.07583 1.38188 -0.810199 0.736748
1027 3 3.64376 8.76961 5.28208 -0.44279 3.46299 -4.01482
1921 1 0.21793 6.92101 7.15211 -2.94765 6.18174 -0.770888
1023 2 -0.021498 8.70396 5.39077 2.93628 -2.89277 -1.47566
971 1 7.04662 5.18845 5.33656 0.408024 -1.58382 3.25893
1028 3 5.31084 7.0466 5.19961 -3.1113 -5.68263 -2.74488
1866 2 5.3575 5.3234 7.15209 3.03425 -2.98583 -1.67998
1929 3 7.1975 7.00689 7.1308 2.47119 0.287463 1.91419
1031 3 7.25335 8.7266 5.28018 0.47779 -0.862859 -1.23791
1032 3 8.87681 6.89298 5.15808 2.79118 2.5743 -0.922468
1870 3 8.96157 5.30682 7.2202 -0.513121 3.55592 5.03488
1930 3 8.90458 8.83943 6.98675 0.787133 4.49343 5.8634
975 3 10.6122 5.15378 5.34291 2.36284 4.17491 -0.844555
1036 2 12.3865 6.86526 5.32326 -1.29289 1.50268 1.97418
1874 1 12.4525 5.23124 7.17031 3.15616 2.86831 3.14179
1933 3 10.7438 6.95072 7.02373 -0.925535 3.15075 1.41709
1934 2 12.3869 8.84381 6.92702 -2.86433 3.65765 0.674196
1932 3 8.95607 6.94349 8.87185 -1.99835 4.33871 2.10481
1936 1 12.5943 7.01615 8.78088 -1.1697 -0.461952 0.562
1035 1 10.5401 8.74202 5.08136 -2.22426 -4.87041 -4.56039
979 1 14.2879 5.01062 5.37525 -1.34614 -2.42176 0.891315
1040 2 15.9823 6.91445 5.34916 -0.907796 -1.97405 2.02455
1878 2 16.0655 5.20346 6.99921 3.05628 0.927622 -0.169223
1937 1 14.2193 7.1321 6.99767 4.70493 0.0388143 -3.00976
983 1 17.809 5.23484 5.25143 4.29462 1.98655 1.40104
1879 2 14.2864 5.2416 8.80651 -1.88859 -4.82252 4.03569
1940 3 16.1027 6.99358 8.69453 -4.7747 2.39365 1.59038
1938 1 15.9213 8.77114 6.8998 -2.44958 -0.126798 -0.765603
1939 1 14.3926 8.69537 8.73365 2.07062 2.88146 3.66893
1941 3 17.8614 6.9271 6.95359 -5.66115 4.63385 1.21516
987 1 21.3822 5.07888 5.30963 1.03296 0.66478 -1.33767
1044 2 19.7491 6.9485 5.3012 0.640045 -1.78244 1.70096
1882 3 19.8472 5.33153 7.04125 1.75149 -0.329706 -1.65997
1945 3 21.5363 7.06855 7.07095 -0.598603 -3.47667 -0.944855
1943 3 17.9502 8.83354 8.86708 -1.54406 0.775721 1.77806
1043 3 17.8326 8.83163 5.46134 -0.299076 -1.11317 -4.59323
1947 3 21.5568 8.80081 8.85982 1.29308 -0.448558 5.4412
1942 3 19.7411 8.66587 7.06041 -0.721451 -4.56747 4.43179
1047 3 21.3594 8.85505 5.25204 -1.38462 -4.79952 -0.830063
991 3 25.1143 5.2863 5.25419 1.80251 0.57117 -1.02994
1048 3 23.0637 7.08352 5.20957 1.90524 0.306368 -0.760175
1886 3 23.2053 5.31528 6.9738 0.88439 1.35463 -1.31154
1949 2 25.1092 7.00447 7.05302 6.27906 2.8916 -1.8215
1946 3 23.41 8.80791 7.09113 0.466586 0.633307 -0.0698274
1948 3 23.2458 7.13862 8.73602 0.185207 5.67585 3.80934
1891 3 24.9721 5.2539 8.85281 0.61805 -1.27068 -0.294081
1950 1 26.608 8.83883 6.9917 2.41025 -2.48119 -3.17269
1922 2 1.8546 8.9398 7.18225 -4.78706 0.59049 -1.34711
1084 3 1.77951 10.4994 5.35704 -1.12394 0.662291 -4.67552
1087 3 3.69437 12.1117 5.39721 -0.330561 -5.57941 -1.18449
1982 3 1.90832 12.3311 7.26149 0.347668 2.50489 -0.732038
1985 3 3.64213 10.4437 7.19509 -0.0856514 2.86838 -2.07895
1981 1 0.00109048 10.6012 7.37793 0.796133 -0.165535 -3.19436
1926 3 5.43783 8.94477 7.04637 0.621175 3.66976 1.49637
1088 2 5.42193 10.5526 5.37072 -2.50959 0.520484 -1.79529
1091 3 7.15225 12.4798 5.31994 -2.57877 1.65034 2.01191
1986 3 5.39877 12.5148 7.13108 1.79174 -2.07046 0.0650889
1989 3 7.05648 10.6114 7.02324 -2.73642 0.193452 0.538151
1935 2 10.7659 8.91062 8.83076 -2.40976 0.850082 0.429909
1990 3 8.86699 12.3164 7.07201 -0.98867 4.699 0.0303639
1092 3 8.99695 10.7361 5.14809 0.104183 -1.74866 -0.288675
1095 1 10.7271 12.4159 5.38695 2.02135 0.840173 -7.46529
1096 1 12.4408 10.6303 5.35179 -1.60244 -2.11629 0.629544
1993 2 10.7612 10.6192 7.0188 0.0870887 -0.983759 -5.91326
1994 1 12.4258 12.3108 6.98826 2.36236 3.45478 1.17284
1996 1 12.5636 10.5918 8.7593 2.15686 -2.51257 -2.13784
1039 1 14.2683 8.92275 5.09632 0.182115 -5.2425 -0.00330412
1099 2 14.2628 12.7071 5.36652 4.59834 3.63687 2.9556
1100 1 16.1899 10.7647 5.18628 4.48609 4.39989 1.63396
1997 2 14.6 10.6216 7.05096 0.0786451 -0.886029 -2.25803
1998 1 15.993 12.4572 7.05218 1.63745 4.39632 0.456254
2000 2 16.0091 10.6674 8.84086 -2.49394 5.14166 -0.676096
1999 2 14.0865 12.2945 8.7991 -5.90474 -0.13973 -3.73319
2001 2 17.8647 10.6545 6.94132 -0.778581 0.274766 6.15882
1103 2 17.9061 12.4645 5.24378 -2.63451 0.703049 1.62464
1104 3 19.6558 10.708 5.45465 -0.967933 2.01589 0.310924
1107 3 21.3665 12.3121 5.20678 0.397095 -2.29646 -1.20354
2002 3 19.8552 12.3873 7.1914 -1.51617 2.98498 5.46412
2005 3 21.4776 10.5742 7.11811 0.581719 0.235311 2.1
2004 3 19.6964 10.4793 8.78041 -1.87485 1.16105 -2.67944
1051 2 25.0259 8.89589 5.30821 0.828215 3.93161 -1.41025
1108 3 23.2288 10.5688 5.20848 1.61212 0.183397 -2.12168
1111 1 25.1051 12.4022 5.23354 0.341746 -1.30824 0.932444
2006 3 23.219 12.2248 6.97439 0.144533 4.13669 -0.722949
2009 2 24.9788 10.4314 7.09754 0.399939 -1.1692 -1.18606
2011 3 24.7381 12.2472 8.76071 2.2838 -1.0185 0.551168
2041 3 0.0546709 14.0394 7.20103 -3.51874 -3.01978 2.40466
1144 3 1.8198 14.1274 5.462 3.07435 0.554281 4.53802
1147 3 3.59304 15.9086 5.40748 -3.70069 -0.899228 -2.513
2042 3 1.6186 15.9209 7.06819 3.30473 2.00716 -0.00320652
2045 3 3.54871 14.1503 7.20597 4.20939 0.865164 -3.23334
2105 2 3.57939 17.7393 7.13156 3.43556 -1.78311 -0.126698
1204 3 1.59366 17.5962 5.27122 -1.9049 0.0453441 -3.99694
2104 3 1.83203 17.7693 8.84989 -2.07781 -0.728855 -2.41137
1148 3 5.26165 14.112 5.23863 -1.584 -2.17724 -2.53942
1151 1 6.96213 16.0908 5.38285 -3.95196 3.08511 -1.92477
2046 2 5.26713 15.7404 7.09912 3.37891 2.13403 1.51912
2049 1 7.08933 14.408 7.14349 1.81083 2.03186 -5.96732
1208 1 5.20023 17.8067 5.31582 0.094828 1.94903 -1.76448
1152 2 8.81737 14.0786 5.29292 -1.31231 0.479129 -4.91356
2050 1 8.81254 16.0785 7.10347 -6.38742 0.27961 -2.53309
1155 1 10.4424 15.9858 5.16822 0.917738 0.0353652 -0.379175
1156 1 12.3969 14.3855 5.2413 3.25277 -0.99326 -4.48044
2053 2 10.5998 14.3184 7.04235 -3.6911 1.12661 1.81265
2054 1 12.0766 16.1179 6.9632 -3.54977 2.5747 -2.36559
1216 2 12.4391 17.7627 5.35066 -0.0677618 1.27618 4.07619
2056 1 12.6305 14.3007 8.79704 0.924039 1.39894 6.30746
2055 2 10.5158 15.769 8.85399 -2.42096 -0.551292 -3.19467
1159 2 14.1816 15.9182 5.29474 2.35483 -1.88558 -0.517002
1160 1 16.1085 14.1541 5.37423 -3.3226 1.44934 0.613907
2057 2 14.0379 14.4002 7.04192 -3.98259 0.0911658 -6.90182
2058 1 16.1569 16.0787 7.03816 0.150872 -0.995672 2.11325
2117 3 14.1654 17.7615 7.13692 1.1713 3.08743 -0.827559
1220 1 16.166 17.6012 5.19257 -6.31404 -0.0864591 0.435066
2060 2 16.0626 14.176 8.79882 -2.98488 0.0485697 -4.45478
2063 3 17.7085 15.7993 8.83127 -1.19211 -1.71384 -6.4043
2121 2 17.8159 17.7341 7.28182 0.537154 0.523179 -0.0390017
1163 2 17.9547 16.0133 5.30344 4.92619 -6.64398 -3.81284
2061 2 18.0096 14.1901 7.02648 -0.239743 -1.40208 3.8303
1164 1 19.615 14.106 5.42169 0.495761 -1.49352 0.792721
1167 2 21.4711 15.9416 5.16443 0.00365995 0.312963 6.98907
2062 1 19.7095 15.9796 7.09459 -0.502909 -2.13776 -1.25332
2065 3 21.4623 14.1615 7.0549 0.151861 -6.779 0.527938
2125 1 21.4132 17.6061 6.93889 3.35579 3.90316 -5.64792
1224 2 19.6277 17.7911 5.31333 0.96832 -1.38127 -1.7566
2064 1 19.7567 14.1697 8.74694 -5.51535 3.64 -2.59502
2067 2 21.5153 15.877 8.8385 5.84759 1.76605 -0.345427
1232 2 26.739 17.7161 5.26218 -1.83393 2.83964 0.753852
1168 1 23.3989 14.1503 5.19084 -0.141054 -0.560111 0.110896
1171 1 24.9927 15.933 5.3034 -3.59671 -1.70061 -1.68445
2066 2 23.2918 15.6852 7.05487 -3.60213 -0.921197 1.43118
2069 2 25.0589 14.0376 7.18802 3.93758 -4.28224 2.91933
2128 1 23.1966 17.5766 8.85904 -4.42042 4.92989 3.11888
1228 1 23.2513 17.567 5.31957 -3.6081 0.892652 2.35588
2070 2 26.6979 16.0516 7.05629 0.459394 2.04274 -3.38956
2129 2 24.918 17.6258 6.9859 -1.74238 -1.19947 -5.72817
2132 1 26.6257 17.742 8.86734 -1.06395 -1.84508 2.02798
1207 1 3.44338 19.6224 5.33216 4.97739 2.56876 1.54662
1264 2 1.82192 21.3713 5.44031 -0.429163 2.93719 -2.27325
2102 3 1.81465 19.5282 7.09691 5.2838 -3.4053 3.03585
2165 3 3.60185 21.4901 7.25738 -3.65836 0.162889 1.16278
2161 3 0.0927177 21.453 7.23022 0.547504 -1.74987 -3.58756
1203 2 0.061755 19.5566 5.32259 -4.7959 2.84959 -3.35976
2107 1 3.81069 19.6791 8.81071 2.15731 0.644394 0.445274
2109 2 6.96779 17.9276 7.15947 -0.59425 -0.508618 -2.14698
1211 1 7.09326 19.8026 5.38893 2.03272 1.58204 2.8824
1268 2 5.28944 21.4202 5.42469 0.929387 -1.52858 -3.40956
2106 2 5.38182 19.7134 7.03897 1.21411 0.910322 -3.70766
2169 2 7.34211 21.6488 7.1428 1.29027 2.881 1.32815
1212 2 8.7515 17.9985 5.28702 -1.40331 0.816973 3.781
2168 2 5.56355 21.4599 8.83364 3.15295 4.60413 0.872711
2113 2 10.4737 17.8586 7.05298 -5.38258 5.32441 0.44816
2110 1 8.91247 19.5591 7.23332 3.89829 2.45276 0.835409
1272 1 8.96367 21.3623 5.31238 2.633 -0.321072 -3.44536
1215 1 10.7669 19.7406 5.45337 -0.285587 0.625994 1.49439
1276 1 12.5832 21.2387 5.40898 -3.65363 -3.4329 -0.667678
2114 3 12.4383 19.5889 7.2364 -3.2497 1.99342 3.04222
2173 2 10.3873 21.3299 7.35871 -3.72901 -1.70963 1.81195
1219 2 14.4092 19.4945 5.45004 0.588261 4.9323 4.15705
1280 2 16.0134 21.4866 5.42379 -0.237492 0.999622 -2.86629
2118 1 16.2391 19.6706 6.98281 -0.415349 -0.306627 1.42548
2177 3 14.2392 21.2594 7.07012 -4.65955 3.30464 -0.903195
2180 3 16.0088 21.3944 8.75455 1.09981 1.28927 3.08053
1223 2 17.893 19.3908 5.49788 4.18542 1.73672 -1.99673
2181 1 17.9165 21.36 7.17013 -0.0281608 -1.31947 -2.64863
1227 2 21.3591 19.411 5.26998 2.63175 0.250598 4.13051
1284 2 19.7532 21.1924 5.45477 -3.34601 -1.09442 -3.36832
2122 1 19.5958 19.2769 7.30809 6.65719 -3.75358 -7.1258