ITEM: TIMESTEP
79200
ITEM: NUMBER OF ATOMS
13500
ITEM: BOX BOUNDS pp pp pp
-1.4395417758637663e-01 5.3663954177577025e+01
-1.4395417758637663e-01 5.3663954177577025e+01
-1.4395417758637663e-01 5.3663954177577025e+01
ITEM: ATOMS id type x y z vx vy vz
7 3 3.36135 1.47893 1.47541 1.5359 0.674678 0.0580458
64 2 1.56719 3.08585 1.78748 2.57985 0.867427 6.24246
902 3 1.56076 1.41382 3.45173 -4.98474 1.81319 -2.10769
965 1 3.22604 3.45562 3.57005 -1.69351 -0.186743 0.749701
11 3 7.15342 1.49916 1.51398 -1.41729 2.22219 0.328758
68 2 5.1201 3.09453 1.77513 4.75071 -4.47212 0.624025
906 1 5.10027 1.60964 3.37113 -1.27179 2.84184 -3.60834
969 3 6.98433 3.19848 3.36442 3.7714 -1.1558 -2.77207
69 3 7.13928 3.27497 -0.030848 -0.318331 1.25622 -2.67406
909 3 7.02222 -0.0442509 3.25169 5.97587 1.54849 -2.65455
12 1 8.78032 -0.120504 1.54837 2.57926 3.43357 0.512074
910 2 8.99348 1.4773 3.2852 2.16398 5.84086 1.95239
72 2 9.03618 3.3789 1.66336 -3.76043 2.76595 1.64604
15 3 10.5635 1.39631 1.5774 1.31239 -3.91621 -2.33194
76 2 12.3305 3.27413 1.73201 0.327335 -3.07389 2.12625
914 3 12.489 1.5787 3.47421 1.70266 -2.13033 -0.70118
973 1 10.7095 3.16329 3.39955 -1.24773 1.92535 0.516987
19 1 13.9586 1.39738 1.76156 6.83555 -5.1325 -1.65789
80 1 15.8777 3.21272 1.50461 -2.17313 3.66416 0.372915
918 3 15.9857 1.35532 3.33928 2.1411 5.7536 -8.24898
977 1 14.2356 3.34815 3.50293 -0.559331 -4.53499 1.38463
18 1 15.7514 1.48547 -0.0591338 2.99796 4.61254 -3.24608
981 3 17.8409 3.21891 3.36646 1.48702 -3.07043 -0.0501509
23 2 17.9307 1.56622 1.41299 0.50352 6.17292 1.08936
27 2 21.4661 1.538 1.48143 1.32346 2.19633 1.08429
84 3 19.6012 3.51665 1.55601 1.94069 -1.7301 3.72443
922 1 19.6758 1.45932 3.44991 -2.28303 3.61042 -1.45374
985 1 21.1946 3.3083 3.38752 -0.521738 1.26394 -0.63059
85 2 21.2767 3.4582 -0.0248854 -2.9458 4.42638 2.81161
31 2 24.8451 1.63103 1.60749 0.024744 -1.74748 -0.203105
88 3 23.0686 3.55562 1.6785 2.60797 -1.67591 -7.21352
926 1 22.9066 1.49646 3.35109 -0.313784 6.09272 -3.74101
989 2 24.8328 3.49245 3.125 4.09193 1.66572 9.4388
929 1 24.9453 -0.0110397 3.57117 2.87864 1.37925 -0.452137
26 3 23.1985 1.57313 0.0233753 -2.07096 2.3688 3.79808
89 3 25.1526 3.25947 -0.0949578 6.46159 -6.32728 3.2314
67 1 3.24203 5.07095 1.70143 -1.83838 -6.87283 4.08775
124 1 1.75543 6.96399 1.33599 -0.547587 0.439944 0.060155
962 2 1.43249 4.95456 3.35928 -2.5849 1.74388 -0.0256125
1025 2 3.3643 6.80134 3.29315 2.21196 -0.459704 2.79296
1022 1 1.72026 8.69036 3.2013 -2.85651 -0.727886 1.34341
127 2 3.4325 8.68959 1.51323 1.64696 6.51807 0.104619
123 3 -0.089972 8.65 1.38196 -3.38562 0.29132 1.65143
62 2 1.71538 4.85302 -0.0805402 -2.64729 0.432267 1.93701
71 1 7.08957 5.02554 1.49292 -2.64731 -2.10346 2.48369
128 2 5.04467 6.91772 1.50861 0.72713 -4.32909 -3.31224
966 3 5.2281 4.89759 3.34936 0.213034 1.16377 -0.931794
1029 2 7.01518 6.89774 3.20788 -3.64364 0.777897 1.42318
1026 1 5.04864 8.71648 3.3477 -5.6636 0.0983276 -1.4633
131 1 6.77428 8.44068 1.46957 -0.401883 2.84699 -4.59799
970 1 8.76683 4.99268 3.32066 4.28951 -0.182666 1.79536
1030 1 8.64494 8.75293 3.20233 0.332775 4.30576 0.447368
66 2 4.99987 4.92283 0.100854 -3.38706 2.11056 4.4973
129 2 7.09844 6.79005 -0.0960343 -0.584622 9.62345 1.18075
132 3 8.85458 6.71425 1.67396 3.81193 3.45564 8.45677
75 1 10.5443 4.92262 1.87079 2.20328 2.02258 2.5023
136 1 12.1395 6.7887 1.56795 1.54806 2.76959 -3.24197
974 1 12.401 5.26929 3.3342 2.4747 7.275 -4.10833
1033 2 10.524 6.94628 3.25636 -1.82067 1.52531 -5.58037
135 1 10.4123 8.54433 1.61129 1.20861 2.57722 0.685247
1034 2 12.3839 8.5998 3.20128 4.57408 -1.52479 -3.02346
74 1 12.0737 5.15139 -0.120657 -7.31837 3.5884 5.29737
79 2 14.3002 5.20689 1.69993 0.117507 -3.56102 -11.0265
140 1 16.157 6.91374 1.58404 -2.95252 1.8887 1.21675
978 1 15.9646 5.17954 3.27176 -2.43315 -6.04013 -3.36535
1037 2 14.21 6.79224 3.4564 -5.07476 3.52067 4.38993
1038 2 15.9154 8.50246 3.46898 -1.08156 0.442449 -3.71812
137 2 13.8855 6.8488 -0.124788 -0.00378808 1.91909 -3.30651
139 1 14.1375 8.50724 1.70033 -0.794563 3.48864 -3.39769
138 3 15.8229 8.67851 -0.101188 -3.37284 -3.48096 -6.43529
1041 2 17.5569 7.0626 3.38398 -2.95009 2.66497 -3.93779
83 2 17.6705 5.23305 1.5351 -5.59731 5.28879 2.15972
143 1 17.656 8.71368 1.47723 -4.81127 2.13303 4.12268
87 3 21.3047 5.22778 1.46473 3.56755 6.59407 -1.05399
144 1 19.4061 7.02871 1.66686 -5.14248 0.314287 -4.30079
982 3 19.4201 5.32945 3.18006 -5.25145 -0.967526 1.73843
1045 3 21.3623 6.87796 3.55072 3.33371 5.06489 1.23371
1042 2 19.4947 8.77892 3.40627 -1.05367 5.18929 1.22054
990 2 26.6233 5.28268 3.17181 7.27782 2.01995 -2.00694
91 1 24.9022 5.36449 1.53716 1.58595 5.73186 2.81173
148 3 23.1619 7.20426 1.79861 -2.75633 -0.9689 -1.97586
986 3 23.1472 5.24482 3.161 5.79449 -0.0572976 -0.316241
1049 3 24.8857 7.1156 3.40618 2.47433 6.42645 -0.0646783
1046 2 23.0919 8.74157 3.49292 1.22171 2.23357 3.65536
152 2 26.5314 7.07139 1.6631 -5.7267 1.30096 -1.8359
151 1 25.0673 8.74737 1.56501 1.18605 -2.84097 0.767613
184 3 1.62255 10.657 1.39433 -0.54545 -2.57446 5.82343
187 3 3.33942 12.255 1.54112 -0.369783 0.0714911 6.08664
1082 3 1.66853 12.4519 3.35457 8.46431 -2.2975 4.13194
1085 3 3.22095 10.7081 3.20044 -1.31812 1.90658 3.28015
1081 1 -0.138855 10.4517 3.25629 -0.772097 1.65984 -0.0473881
188 1 5.42116 10.5 1.59061 0.820475 -4.61066 -1.13491
191 3 6.98698 12.5195 1.65408 2.86922 7.43537 2.04571
1086 3 5.11533 12.3113 3.34135 6.46645 9.49719 -5.00682
1089 2 6.7634 10.639 3.3426 4.66401 -4.45981 0.821531
1090 1 8.7075 12.3119 3.51679 4.61761 7.39227 -2.08264
192 2 8.59227 10.4825 1.67316 -2.11106 -0.586228 -2.93746
195 1 10.4552 12.323 1.54761 -4.11276 -2.95958 1.78753
196 2 12.4196 10.4559 1.761 -10.219 4.12624 5.0337
1093 1 10.5617 10.32 3.38647 -4.26626 1.99238 -1.23307
1094 3 12.1858 12.3627 3.26895 4.0206 5.23181 1.11425
193 3 10.4676 10.3554 0.0293684 -1.55976 -0.758558 -0.752906
194 1 12.1571 12.2636 -0.122323 -0.423412 3.38901 0.992513
199 3 14.2679 12.3432 1.53139 2.49045 -3.17442 -2.50452
200 2 15.8605 10.2281 1.64163 -1.80399 -3.03838 0.965962
1097 3 14.0647 10.6795 3.55331 -1.58943 0.386494 4.06513
1098 1 15.7807 12.4071 3.37432 -0.0886352 1.21625 -6.03262
1101 1 17.6961 10.5209 3.37833 2.79734 5.28232 2.15267
197 1 14.065 10.4196 -0.0849529 -1.82544 0.891275 -4.06759
203 2 17.4413 12.3696 1.62592 -0.63721 -2.75208 4.26918
147 3 21.3114 8.9008 1.48793 1.02026 0.938347 -1.69332
204 1 19.5435 10.5225 1.62666 0.810147 0.609347 -1.52906
207 2 21.4632 12.2285 1.67072 3.27994 2.56175 -0.41343
1102 2 19.6606 12.2594 3.28386 -7.02182 -1.50079 1.83137
1105 1 21.5037 10.6858 3.25831 0.325808 -1.54852 7.31855
202 1 19.5664 12.274 -0.0892438 -2.50877 -6.98984 0.189951
208 1 23.2623 10.3626 1.71516 -5.12817 -4.10116 -4.82324
211 2 24.6253 12.3138 1.59631 -1.91643 3.59517 -0.260482
1106 1 23.2086 12.3731 3.48394 -3.18566 2.24474 -3.55223
1109 3 24.8707 10.6875 3.52559 2.76774 -2.95549 4.18932
1110 2 26.6471 12.2816 3.54596 -1.11889 2.06546 -0.732807
210 3 26.691 12.39 0.0409195 -4.94844 4.21209 3.87052
244 2 1.688 14.2542 1.53722 -4.28696 10.4112 -2.52632
247 3 3.42908 16.0611 1.73478 0.340972 3.55003 -1.10805
1142 1 1.46025 15.9146 3.46644 2.36268 -1.12531 -3.10528
1145 3 3.3882 14.1931 3.49486 1.05522 -4.46562 1.70688
304 3 1.51409 17.6301 1.56879 -5.02882 -0.324002 -0.0997618
248 3 5.08238 14.1095 1.70632 2.48939 0.442035 1.12321
251 1 6.74315 15.7353 1.49328 -0.710306 -5.51093 1.80459
1146 2 5.19242 16.0522 3.59551 3.25787 -1.32287 -3.21252
1149 1 7.0173 14.1071 3.46403 6.0641 1.41739 2.72759
1150 1 8.63163 15.9831 3.5116 0.509437 -5.07517 -2.1366
312 2 8.68764 17.5913 1.75539 5.29153 -1.48302 -0.95101
1209 1 6.70665 17.6365 3.3432 1.61704 -2.5239 -7.09735
249 3 6.74437 13.9315 -0.0468688 1.3877 0.534033 -0.48945
308 1 5.2423 17.7164 1.64214 -2.79983 -8.00014 -2.5977
252 2 8.84059 14.2287 1.5496 3.08076 -5.88074 2.76433
255 3 10.7161 15.6657 1.69262 0.858217 -1.18341 -1.33436
256 1 12.3966 13.8904 1.39344 -1.19845 0.406027 0.0411143
1153 2 10.3441 14.1477 3.72666 -0.0218113 -0.817445 0.523816
1154 1 12.4532 15.8719 3.34482 -2.03142 1.36682 0.77983
1213 1 10.8243 17.6273 3.45148 -6.09126 0.527743 0.119691
313 3 10.5484 17.5095 -0.128419 -1.89485 7.88643 -0.0610539
254 2 12.5017 15.8103 -0.140669 -1.83394 -4.16367 -2.07183
250 1 8.92398 15.6823 -0.0809469 -5.18907 1.21776 -1.27556
316 2 12.5163 17.7454 1.56212 0.811975 -4.80092 0.549359
259 1 14.1856 15.9356 1.4239 -3.04851 -3.13383 2.12529
260 1 16.0212 14.0767 1.62218 4.10138 -3.49742 -1.52429
1157 2 14.0801 13.9809 3.5557 6.55969 -0.317449 2.70181
1158 2 15.8292 15.9316 3.40376 0.977856 -0.556245 -0.00857757
263 2 17.5701 15.7353 1.42349 0.819187 4.78138 -4.48227
1161 2 17.7653 14.1721 3.30869 6.39642 0.648328 -10.7858
1221 1 17.9025 17.6781 2.92662 -2.49121 -1.73832 2.00508
264 1 19.4737 14.1242 1.51674 -2.57671 0.770103 0.331631
267 2 21.3166 15.9664 1.54465 -0.19821 -1.88196 1.21667
1162 2 19.527 16.0267 3.463 -1.79636 1.54454 -2.44231
1165 1 21.345 14.3178 3.36404 -2.80076 -0.478676 0.371589
324 1 19.4503 17.6327 1.35458 1.60512 0.093864 -5.10839
1225 3 21.1219 17.6289 3.11518 0.331864 3.33971 0.189054
268 3 23.2122 14.2315 1.55448 -9.11403 3.6479 4.21369
271 3 24.9155 16.0812 1.6495 2.40089 -2.26282 -1.29761
1166 1 23.0088 15.8978 3.41585 0.449481 -3.01864 -2.07206
1169 1 24.7554 14.3371 3.48287 -6.0082 4.32168 -1.92461
328 1 23.0537 17.6549 1.68921 -3.41616 4.86718 0.614676
272 3 26.7264 13.9807 1.74627 -0.940608 2.14865 -3.64787
1170 3 26.5669 15.902 3.37345 -2.23165 -7.28713 -4.1143
1205 2 3.29287 17.9222 3.35082 -1.53927 3.1949 1.48935
307 2 3.56193 19.4763 1.59479 2.06231 -2.26067 0.1636
364 1 1.66712 21.0133 1.6327 1.25903 -4.4258 0.650219
1202 2 1.56563 19.428 3.3697 -0.223592 -0.219533 6.60777
1265 1 3.38859 21.2844 3.42299 0.166686 -1.25459 -1.49571
365 2 3.48897 21.071 -0.112938 0.138378 -4.91668 5.3525
311 1 6.97645 19.5024 1.41789 -1.84275 -1.84088 5.80176
368 3 5.18125 21.3077 1.6336 0.471248 -3.39733 -1.32904
1206 1 5.17571 19.5955 3.45762 2.31362 0.630836 0.797217
1269 2 6.92264 21.2864 3.13631 2.07106 -2.0745 2.68592
1210 2 8.76079 19.2486 3.30186 -0.851772 3.79925 0.736841
372 3 8.80405 21.1545 1.51588 3.57955 5.60068 1.53244
315 3 10.5258 19.2976 1.65182 2.76897 4.89689 1.65347
376 3 12.2564 21.3994 1.80091 -0.463263 -0.456241 1.07764
1214 3 12.2351 19.5397 3.32911 2.01806 6.58434 -4.63168
1273 3 10.624 21.2873 3.51955 -5.6686 3.54533 -3.26271
320 2 16.0844 17.8366 1.61133 -1.38773 7.2115 2.10404
1217 1 14.0253 17.8039 3.16635 -0.841212 -4.3617 5.45883
319 3 14.1357 19.3689 1.43251 -3.74338 -2.97914 7.45548
380 3 15.8758 21.2993 1.42413 -0.749895 0.59485 1.67093
1218 3 16.0238 19.3392 3.3237 -2.78593 -2.59304 -1.50876
1277 3 14.105 21.3108 3.19267 0.988367 -1.50264 -1.46717
323 3 17.898 19.8115 1.54155 -0.385507 4.33957 0.783647
1281 2 17.9778 21.2951 3.22488 -0.327694 1.65278 -0.352962
327 1 21.4924 19.3959 1.58173 -2.81278 1.83116 7.91768
384 1 19.7078 21.3182 1.6297 -10.9449 6.44995 -1.16354
1222 2 19.5232 19.4903 3.32467 1.65172 -2.33068 8.92032
1285 2 21.4015 21.2999 3.43411 -10.9839 -2.56767 1.45505
1229 2 24.8279 17.811 3.3117 -0.364119 5.15919 -0.90639
392 2 26.6595 21.3019 1.5523 1.64039 3.41146 -1.10086
331 2 24.8482 19.5457 1.60173 1.35609 0.283674 0.743524
388 1 23.1468 21.3217 1.60802 1.92046 2.27416 0.125195
1226 1 23.0381 19.4806 3.54504 -6.56064 -0.559821 4.79866
1289 1 24.9702 21.1626 3.51352 -0.332047 0.00508052 0.582946
326 2 23.0173 19.4334 -0.0964749 -1.29668 1.54676 -3.28386
367 2 3.30501 22.9069 1.30983 -1.17927 1.11708 3.47398
424 1 1.46261 24.8279 1.62387 -2.23168 -3.59118 -7.88982
1262 2 1.77749 22.9558 3.38173 0.283361 1.13998 0.943249
1325 1 3.16439 24.7836 3.53673 1.53193 -5.43777 4.53118
427 2 3.20985 26.719 1.47477 -0.500163 -0.938851 -1.29083
362 1 1.41232 22.968 -0.048667 -3.85734 -2.83839 -0.756665
371 1 6.97661 23.1278 1.78509 1.42143 8.10886 1.35778
428 1 4.95259 24.8086 1.57916 4.88603 3.09178 3.08216
1266 2 4.90317 23.1719 3.13704 -1.52392 0.319866 -2.84142
1329 1 6.9009 24.8853 3.33284 4.22991 0.693224 -2.35243
431 2 6.82919 26.7503 1.50472 -1.70238 1.49318 -3.37286
1326 2 5.25585 26.4326 3.26829 -0.0148136 -0.829448 -2.89254
432 1 8.81724 25.0408 1.59972 1.69557 -0.445471 -3.49131
1270 2 8.77313 23.0212 3.24125 0.443688 0.0184784 -3.3929
1330 3 8.93868 26.7135 3.09442 3.13781 1.56134 -2.90475
375 3 10.4461 23.0811 1.63412 -2.51473 -6.72733 -4.14032
436 1 12.2215 25.0315 1.61389 -2.35091 6.03384 -1.49766
1274 2 12.2602 23.1511 3.44966 -5.40903 -4.10492 -0.201386
1333 1 10.6625 24.7722 3.35089 -5.36936 0.533341 1.3155
435 2 10.6452 26.6268 1.42975 -2.97023 6.74974 -0.68528
1334 1 12.3211 26.7631 3.29638 -1.49411 5.45354 2.51149
1338 3 15.9543 26.6593 3.25301 -0.832544 2.81852 -1.59408
379 3 14.367 23.0516 1.53964 4.95768 8.29079 2.81569
440 2 15.8724 24.9232 1.64769 -0.833335 -4.5296 4.31114
1278 3 16.047 23.135 3.26054 1.80052 2.13701 3.26459
1337 3 14.0878 24.7486 3.39566 5.32544 -2.03134 3.35707
439 2 14.1394 26.5971 1.47729 -4.71159 0.0729145 -6.13533
383 3 17.6439 22.9815 1.38424 -1.39382 4.1356 0.173739
1341 3 17.9622 24.7231 3.31992 -2.17181 1.83724 -2.41418
387 1 21.3545 23.0846 1.74661 1.88244 -3.87909 3.51044
444 1 19.4606 25.0607 1.3421 2.2828 0.0347523 -2.70995
1282 1 19.4129 23.0662 3.32256 2.50702 -2.86548 -5.69072
1345 1 21.3832 24.8084 3.34073 3.441 2.17144 -1.29601
1342 2 19.6642 26.544 3.19172 -0.174204 0.839734 -3.512
447 2 21.4461 26.7373 1.53939 -0.141999 0.436874 -5.36775
382 2 19.7564 23.198 -0.0947625 -0.487924 -2.73077 0.409431
391 2 24.9238 22.9953 1.76125 -2.88873 -10.1697 2.41262
448 3 23.2467 24.7829 1.68158 -0.455618 1.55083 0.903641
1286 2 23.2106 23.062 3.55381 2.18077 -3.15744 3.38686
1349 3 25.0681 24.8443 3.49409 -1.14369 -3.8448 2.05504
449 1 24.8507 24.9241 -0.0738772 -5.62786 -2.07268 -0.626823
386 2 22.9754 23.0765 0.012446 7.83696 0.154734 -2.66805
452 1 26.5936 24.7998 1.64447 -3.30037 2.76575 -1.47262
446 2 23.123 26.6586 -0.105929 -1.80935 1.87443 4.22215
907 3 3.26705 1.48431 5.28254 -0.625401 2.16681 -1.7204
964 1 1.46184 3.29007 5.24517 2.91675 0.103493 0.544252
1802 3 1.51022 1.63254 6.98863 -0.597696 -1.17498 -3.53119
1865 1 3.45659 3.41804 7.08993 0.253573 1.17755 -3.73319
1807 3 3.28873 1.58162 8.73842 2.48033 1.80361 -1.32363
1804 3 1.45184 -0.079868 8.81282 8.80219 1.90223 -4.38035
1808 3 5.1458 0.0407091 8.61438 -0.746186 4.0267 0.629489
911 3 6.95745 1.46445 5.16989 -6.44925 -1.66538 7.99615
968 3 4.98926 3.3194 5.10611 -0.772141 3.85418 1.68579
1806 3 5.22986 1.74616 7.03925 -0.0697822 -7.03721 -1.6345
1869 3 6.96062 3.25382 6.97663 2.75905 1.56039 0.246868
1872 2 8.78107 3.09496 8.72364 -0.246499 0.727664 4.37732
1812 2 8.61075 -0.0495915 8.7013 1.69611 8.04191 5.05274
972 3 8.94947 3.31602 5.10219 3.95449 -0.317664 -3.39673
1810 3 8.94812 1.47794 7.04332 0.694973 -0.733179 6.01844
915 2 10.6256 1.62694 5.21501 -0.2697 2.32696 2.38581
976 2 12.4961 3.28392 5.27175 -0.905357 -1.31766 -2.6381
1814 1 12.4133 1.40791 7.04621 4.20741 0.384749 -5.85544
1873 1 10.6539 3.13215 6.92993 0.839188 -0.864692 -1.79276
1815 1 10.718 1.48901 8.73269 -2.16943 2.32331 4.63797
1876 2 12.4352 3.31272 8.49692 -4.22876 0.396709 -2.80805
919 1 14.3362 1.36485 5.0518 3.69619 -1.3634 -2.91108
980 2 15.9535 3.3255 5.22598 -2.99561 1.36416 2.56072
1818 3 15.9891 1.50164 7.19991 4.32056 4.20222 1.93557
1877 3 14.1659 3.03562 6.9971 0.48449 6.62818 -1.21876
1881 1 17.7462 3.2898 6.74388 0.0771465 6.06541 5.88973
924 2 19.7769 -0.118346 5.14707 1.90429 -0.592353 5.91956
923 3 17.8131 1.50335 5.20055 -1.0955 1.40326 -3.50078
927 2 21.3524 1.68636 5.24562 -0.117466 4.31738 -8.61106
984 2 19.4361 3.50692 5.25157 2.08439 -5.67193 1.08503
1822 3 19.4034 1.60753 6.99612 0.489684 -1.70288 -5.38958
1885 1 21.3382 3.43429 7.02786 -2.12934 -4.22342 2.69817
1827 3 21.5188 1.5629 8.81857 1.02639 -0.0249681 2.05408
1884 2 19.3907 3.37359 8.74498 -0.692136 -6.73003 1.33668
931 1 24.7239 1.85769 4.94136 3.91979 -2.34825 -0.0631435
988 3 23.077 3.47171 5.1451 -5.21869 -5.47083 1.14518
1826 2 23.0961 1.68709 6.95825 1.88937 -0.978356 6.99424
1889 1 25.0595 3.33583 6.81159 -2.28847 -0.600934 1.90548
928 2 23.3111 -0.0130858 5.05087 -2.68038 -1.14133 -2.34132
1830 3 26.4686 1.59339 7.12016 -2.38677 2.76485 1.82092
967 2 3.23473 5.37617 5.24806 -1.09961 3.0883 -0.515096
1024 1 1.45548 6.84777 5.14261 -10.9172 7.92874 1.7339
1862 2 1.5607 5.31773 6.98925 -2.8992 0.821438 -0.0464279
1925 1 3.37576 6.94625 7.00023 -2.54547 3.14135 -2.62674
1027 2 3.17662 8.62303 5.16331 -1.30641 4.08256 5.3094
1922 2 1.80201 8.59702 7.15586 1.16858 2.96652 1.01586
1924 1 1.33082 7.05042 8.62933 2.90819 2.45685 0.0160306
1867 2 3.41931 5.13592 8.66847 0.62796 -1.59231 -2.5026
1023 2 -0.0120769 8.76095 4.77801 -1.65878 4.1323 0.0646587
971 3 6.98134 5.13702 5.1153 -7.59968 -5.45647 -4.648
1028 1 5.18561 6.84783 5.00098 3.82942 1.30466 3.11163
1866 3 5.5333 5.10281 6.94423 1.64076 -1.82264 -3.38993
1929 3 6.87846 7.01611 6.98215 1.18744 2.79607 1.57855
1926 2 4.88055 8.81014 6.92571 -0.820938 -0.9804 3.50098
1031 2 6.8159 8.7176 4.83183 -2.50924 -1.77881 0.139272
1871 3 7.23084 5.04897 8.76526 1.40758 -0.222732 2.5827
1931 1 6.9413 8.78832 8.76103 -0.317377 0.886082 -3.05189
1870 3 8.78706 5.16629 6.82786 3.27012 -3.90812 -5.60325
1930 2 8.46569 8.63096 6.80873 3.91296 -1.4565 -6.059
1032 1 8.66608 7.15145 4.84071 -4.69003 -3.86747 -1.02213
1932 1 8.97567 6.94415 8.53547 1.79859 -1.84429 -2.98346
975 2 10.5806 5.14373 5.18414 1.85533 5.00911 -0.291477
1036 1 12.3278 6.79346 5.25055 1.53984 2.04233 1.84375
1874 1 12.4245 4.89887 6.95116 3.47197 0.276487 -0.95153
1933 2 10.7108 7.10992 6.68509 -3.73901 -1.98772 -3.40624
1875 2 10.6292 5.04245 8.66617 2.69019 -6.25336 3.562
1936 2 12.1499 6.96173 8.7149 0.34116 -0.686618 -0.372111
1035 1 10.7721 8.61009 5.08903 3.62396 -3.73284 0.0743946
1935 1 10.7144 8.75253 8.41412 -1.87256 2.5026 -6.47606
1934 3 12.5198 8.74309 6.97228 2.33575 -2.70074 -5.25243
979 2 14.204 5.03104 5.05218 0.628902 1.30609 -0.751485
1040 1 15.8921 6.8333 5.33385 0.42453 -2.46414 -1.8431
1878 1 15.9025 4.96905 7.06885 5.53452 -0.355874 0.0498117
1937 2 14.0181 6.92757 7.01992 1.10822 -0.984237 -4.83192
1039 1 14.0127 8.52828 5.04383 7.37543 -0.0371095 -0.159089
1938 3 15.8209 8.76892 6.79554 5.37008 1.22943 -2.13597
1043 3 17.7963 8.59276 5.12904 5.38466 -2.03822 2.7441
1941 2 17.5519 6.90898 7.18196 2.60063 -1.99046 -0.899352
983 3 17.6726 5.11485 5.12626 -3.9809 -1.92463 2.16306
1939 3 14.12 8.69421 8.64417 3.55401 0.899293 -4.12931
1883 2 17.934 5.11006 8.70646 -0.0482232 2.15136 2.15135
987 3 21.3832 5.27307 5.19794 0.677778 -3.56583 -1.42177
1044 3 19.3477 6.8209 5.17986 -2.0949 -1.69605 2.66732
1882 1 19.4406 5.1885 7.24863 1.2667 2.35772 -2.69032
1945 3 21.268 7.01583 7.02594 0.286862 0.463821 9.94679
1942 3 19.3214 8.68939 6.98189 -6.25739 -0.371878 0.645981
1887 2 21.2343 5.19577 8.79263 4.59852 -5.02872 4.44308
1947 2 21.3528 8.77284 8.68685 -0.836679 -0.711166 4.77307
991 3 24.8675 5.34898 4.97369 0.608041 -2.16493 -2.87371
1048 3 22.9818 7.00554 5.30117 5.957 2.05528 -0.515025
1886 3 23.097 5.11133 7.04085 -2.26114 1.8702 -0.50553
1949 2 25.0509 6.97274 6.87454 -0.505844 -4.05328 -6.09826
1052 1 26.557 7.15233 4.98596 4.6811 2.07377 -2.61717
1946 3 22.9972 8.67602 7.04454 -0.637317 -3.07671 0.179886
1948 1 23.194 6.77917 8.82796 3.39248 4.12055 3.18789
1891 3 25.0077 5.01145 8.65194 -2.13512 -3.48564 0.7617
1951 1 24.6589 8.56846 8.62859 1.90709 3.62608 3.14497
1950 3 26.6236 8.77206 7.12277 0.217026 3.67688 -1.01374
1084 1 1.6189 10.4156 5.06964 -1.33841 3.56566 -2.77614
1087 2 3.33825 12.2534 5.15002 3.24747 4.85713 -2.40296
1982 3 1.48633 12.258 6.81214 -1.50767 2.71788 -3.12601
1985 1 3.29978 10.4717 6.96072 -1.72677 -0.74673 -4.10436
1987 1 3.28826 12.3667 8.58655 6.21858 -1.0348 -3.54194
1984 2 1.58049 10.6354 8.6361 0.346078 -0.386997 5.14305
1927 2 3.19842 8.91177 8.79594 -0.313453 -3.14219 -2.26744
1088 3 5.01458 10.4852 5.09225 1.84203 -3.57058 2.08277
1091 2 7.01714 12.403 5.23627 -4.08011 3.28041 4.68513
1986 3 5.07712 12.395 6.87138 -1.1663 -2.62205 0.0622053
1989 1 6.86406 10.6158 6.87524 -5.03153 -2.18984 2.56452
1988 2 5.22328 10.4609 8.5617 3.72343 -0.0674435 0.556232
1991 1 7.02727 12.0645 8.77135 0.847967 -0.838899 0.413559
1092 1 8.69732 10.4918 5.17649 -2.65354 3.1555 1.52902
1990 1 8.65214 12.2122 7.1282 -1.85782 7.87061 -1.64425
1992 2 8.85501 10.4627 8.66925 0.0590271 5.02535 -6.82669
1095 2 10.3017 12.2749 5.00754 2.01256 -1.21247 -1.57767
1096 2 12.2792 10.6525 5.01855 1.13189 -2.04055 -1.72742
1993 1 10.7049 10.4572 6.89245 -1.34426 -5.56905 4.92321
1994 1 12.1049 12.3735 6.6392 -5.84807 1.32562 -0.299202
1995 1 10.5459 12.0229 8.55943 -1.20783 -0.017294 0.799675
1996 2 12.4651 10.6422 8.52268 2.48989 -0.101548 -1.1865
1099 2 14.3253 12.3509 5.32628 -5.00692 -1.13127 9.99338
1100 3 15.9503 10.4613 5.01287 -0.456146 5.78352 -1.75065
1997 3 14.1717 10.5141 6.86979 0.247536 4.56366 0.140213
1998 3 16.164 12.3369 6.87394 2.10048 7.39675 -2.60952
1103 3 17.7929 12.43 5.10804 2.94607 0.333964 -4.12481
2001 3 17.6233 10.3862 7.03614 -0.492465 4.11109 -4.06301
2003 3 17.5808 12.3442 8.77551 -5.12182 -2.83729 1.03017
1943 3 17.5168 8.86297 8.70055 -0.956672 -0.582385 -1.86206
1999 3 14.0039 12.3287 8.77534 3.10637 9.43187 -6.70899
1047 1 21.2541 8.92391 4.98354 -8.73054 2.32356 3.65559
1104 2 19.518 10.671 5.05851 2.11686 6.75956 6.31353
1107 1 21.3659 12.4006 5.06233 0.327688 -0.787836 2.95195
2002 1 19.4014 12.4281 6.94708 3.36366 -2.20585 0.427478
2005 1 21.458 10.5905 6.89491 -1.19111 5.37199 -2.04567
2004 3 19.4754 10.4809 8.76242 2.26367 1.58774 4.13127
2007 2 21.2387 12.3613 8.54072 0.841394 7.62288 -1.92638
1051 1 24.7878 8.83753 5.14281 -1.97606 -0.300388 2.59917
1108 2 23.1548 10.6628 5.33608 2.18394 -5.03208 1.34346
1111 1 24.9681 12.4185 5.06116 3.81042 0.413692 1.11147
2006 1 23.222 12.303 6.90046 -2.25251 4.93431 0.905237
2009 2 24.8563 10.521 7.05093 0.612529 4.54643 -2.70511
2008 1 23.077 10.6216 8.6618 -2.71631 3.49916 2.15491
1112 1 26.7432 10.4427 5.35504 0.419243 1.81181 -0.835025
2010 2 26.697 12.3161 6.90419 -2.16622 3.65672 1.75589
2011 1 25.0392 12.3029 8.76136 -1.0143 0.441587 -4.47308
2101 3 -0.133609 17.6603 6.96318 3.20251 -1.69733 -3.26171
1144 3 1.43177 14.0895 5.12442 -1.77357 0.851578 -0.204087
1147 1 3.42362 15.868 5.36346 -1.66696 -3.8918 4.38701
2042 2 1.39713 16.0178 6.93577 -3.11782 -1.85056 -5.92676
2045 2 3.12481 14.1233 6.73357 2.34931 -0.346789 5.42732
2044 1 1.51039 14.0005 8.57605 0.365165 -0.208823 10.5544
2047 1 3.30632 15.9866 8.52232 -0.283819 2.43095 -1.63992
1204 1 1.47961 17.4652 5.05319 -0.617584 -2.41749 -3.92491
2043 1 -0.0739715 15.8104 8.69261 -0.140944 5.50872 0.715659
2104 1 1.74029 17.7518 8.76788 -3.24638 -3.85801 -5.38147
1148 1 5.09945 14.042 5.38405 2.05142 3.10585 5.97744
1151 2 6.9119 15.8903 5.25845 -5.08989 -0.578017 0.251886
2046 1 5.10376 15.9655 6.90662 -2.06767 0.717552 4.1195
2049 2 6.83992 14.0711 6.99097 -1.96994 -0.802121 3.28415
2048 3 4.9346 14.0595 8.65145 0.707556 0.197981 3.41829
2050 1 8.80101 15.771 7.00374 3.32811 0.463392 -3.28812
2052 3 8.75382 14.1047 8.64904 -0.882311 -2.34523 -1.23544
1208 2 5.04742 17.7494 5.24373 -8.88917 1.30221 2.19927
1152 1 8.6171 14.2495 5.21801 0.962797 2.36527 0.0364262
2112 1 8.53259 17.654 8.65992 4.34162 4.08695 4.59323
2109 1 6.86484 17.4927 6.9088 -1.34352 -3.42054 -0.977631
1155 2 10.6964 15.9 5.19147 0.95839 4.34054 1.00394
1156 1 12.4072 14.1816 5.14523 2.16728 -5.21405 -4.32776
2053 2 10.4272 13.9212 6.81915 -4.12603 -1.59519 -0.808146
2054 3 12.5552 15.8639 7.00022 5.32386 1.28696 -5.09637
2055 2 10.6138 15.7586 8.37839 -4.23875 2.12713 -2.63162
1216 2 12.4014 17.7554 5.24556 -3.46148 -0.65127 2.30108
2056 3 12.2383 13.9666 8.64792 -2.36196 -4.02226 0.737428
1212 2 8.86091 17.6259 5.31127 -6.89436 -4.35314 -5.11667
1159 1 14.0237 15.9293 5.07121 -0.0755672 5.3932 -4.52454
1160 3 16.0214 14.1827 5.31445 -2.5828 -1.0831 0.055332
2057 3 14.2719 14.0305 6.92367 -2.1939 -2.3974 0.686781
2058 2 15.996 16.0342 6.87918 3.35436 3.28501 2.95326
2059 3 14.2592 15.9329 8.68144 -6.02613 2.67974 -1.5681
1220 2 15.9037 17.6755 5.12558 -1.40139 -0.103672 0.641392
2117 1 14.0172 17.7884 6.79748 2.50205 1.44635 3.67796
2120 3 16.03 17.5992 8.71083 -1.39561 3.00128 0.418202
1163 1 17.6794 15.9416 5.21899 -1.04793 -1.0217 6.77349
2060 3 15.7265 14.0816 8.60474 -2.50243 -0.254288 -6.41313
2063 1 17.7799 15.945 8.71183 -1.99154 3.03709 0.484993
2061 2 17.8997 14.1572 7.1459 2.75351 -2.01521 2.90031
1164 1 19.4585 14.1847 5.16391 2.25654 3.70042 -1.66391
1167 1 21.1139 16.0222 5.23797 0.134939 -4.90174 2.47956
2062 2 19.3293 15.9547 7.0775 4.4601 -0.739249 2.3825
2065 2 21.373 14.1854 6.95056 3.71142 -2.11766 6.21304
2125 2 21.5882 17.5291 7.07773 -2.7539 2.09129 1.62873
1224 2 19.3705 17.7438 5.059 -4.71985 -2.55903 -2.73334
2067 1 21.3622 15.8526 8.74095 -7.54257 -2.08637 -6.17462
2121 2 17.821 17.7732 6.89424 0.122503 -5.15048 -3.57741
1172 3 26.6929 14.173 5.08527 -3.07769 6.40082 0.468797
1168 2 23.0094 14.3297 5.21128 -3.251 -0.16754 0.825805
1171 3 24.9986 15.9756 5.14282 0.921305 -1.74824 2.10007
2066 1 23.2937 15.7947 6.99652 1.64341 0.35865 -1.53648
2069 2 25.2155 14.0596 7.05999 4.15562 -1.5844 -0.797685
2068 3 23.3399 14.083 8.67829 -1.15467 0.947387 0.698713
1228 1 23.0196 17.6192 5.18399 0.485609 -1.62203 2.93171
2129 2 24.8891 17.595 6.9046 2.15718 -2.34151 -0.964433
2071 2 25.0474 15.797 8.79953 -0.116293 -0.124114 -3.65441
2105 1 3.19828 17.7991 6.80714 6.25949 -1.99692 1.10312
1207 1 3.30394 19.6518 5.29794 1.9377 2.8689 7.33471
1264 3 1.39414 21.2956 5.10416 3.04681 1.49998 4.40028
2102 2 1.62179 19.2717 6.92482 1.42869 4.8289 1.61597
2165 2 3.42064 21.3386 7.11752 -1.36014 4.0475 -1.77448
2164 3 1.62102 21.2201 8.71906 -1.16177 -6.42338 -2.69987
2107 1 3.24139 19.6564 8.54657 0.328249 5.92412 -1.48505
2108 2 5.0069 17.8014 8.57243 -2.38622 2.80878 -4.65478
1211 1 7.02762 19.3453 5.19521 -0.342043 -4.71382 1.57795
1268 2 5.36145 21.1613 5.01581 4.48621 -1.55061 -1.65389
2106 2 5.3668 19.2702 6.99885 -1.49998 4.64966 1.32937
2169 2 7.39546 21.2508 6.6407 -0.843296 -0.154011 2.93051
2168 1 5.28867 20.9769 8.64191 0.449896 3.41568 -0.586326
2110 2 8.53266 19.3638 7.11355 -1.99992 -1.04866 -2.86883
1272 1 8.73694 21.2049 4.85876 1.68898 -6.13879 0.479791
2116 3 12.3791 17.7924 8.66964 -0.0772931 -1.10712 1.45038
2113 1 10.4159 17.8725 7.12753 -5.32514 0.833727 -4.02477
1215 1 10.466 19.3461 5.13233 -2.69224 0.209005 1.31426
1276 1 12.0901 21.0538 5.21097 2.98082 -7.56252 0.261286
2114 2 12.4821 19.6129 6.92948 -6.72933 6.76517 4.7313
2173 2 10.2335 21.1982 6.85529 2.20422 4.1143 -0.245739
2115 3 10.4938 19.6124 8.8028 -0.450764 2.91207 2.34565
2176 3 12.3062 21.3283 8.75862 4.81948 1.84305 -0.901079
1219 3 14.063 19.5139 4.91472 0.309182 1.54879 2.24322
1280 3 16.0003 21.2347 5.02668 -0.101499 4.77652 -2.60049
2118 2 15.9527 19.3556 6.83793 -4.69709 0.796322 0.945871
2177 1 14.0593 21.1576 6.72293 -0.267817 -2.18512 0.453705
2119 3 14.1445 19.5236 8.6823 -3.15554 0.160755 -0.635691
2180 1 15.9766 21.1956 8.79232 0.657014 5.35895 0.751866
2181 2 17.7673 21.2904 6.9084 2.40102 0.896148 -1.31025
1223 1 17.6924 19.48 5.23517 3.63578 3.61418 -1.35555
2123 1 17.7007 19.6128 8.78397 0.522942 1.01352 -1.21825
2124 1 19.6026 17.8581 8.7835 0.549322 -4.67126 -0.11312
1227 1 21.059 19.2777 5.05533 -1.97389 -0.330594 -1.44255
1284 3 19.4672 21.1994 5.21147 -2.57698 -5.0733 1.43888
2122 1 19.4411 19.5655 7.06667 -0.735584 -2.82766 -0.147311
2185 2 21.2432 21.328 6.88071 -0.519902 -2.53731 -2.42381
2127 2 21.4836 19.569 8.72285 -0.824969 -0.774127 1.03303
2132 1 26.6256 17.8162 8.80197 3.42963 1.68898 4.98793
2128 1 23.1469 17.7852 8.77119 -5.92854 -8.54821 -1.91783
1292 2 26.7311 21.1762 5.35359 -1.31427 -4.12562 -1.38022
1231 2 25.1295 19.3379 5.29804 1.03396 9.7108 2.04089
1288 2 23.1279 21.336 5.13417 1.50488 -0.780981 5.96493
2126 1 22.9351 19.5924 6.71934 2.94586 4.36169 -2.16056
2189 1 24.8375 21.2488 7.06847 2.28508 -4.58163 4.09941
2188 2 23.1977 21.3975 8.62018 1.82699 -4.65701 4.20657
2131 2 24.7646 19.7041 8.75237 1.72458 -1.44062 1.99395
2130 1 26.7305 19.3891 7.06695 -2.8568 -6.60635 5.11096
1323 1 0.013603 26.6332 5.05096 0.00130732 -0.593378 6.73266
1267 1 3.3092 22.9022 5.3561 -1.19818 1.53141 1.23166
1324 2 1.66415 24.8373 5.26882 -2.09085 6.90855 -2.26695
2162 3 1.64082 23.0322 7.0012 1.05302 -2.7045 -2.73438
2225 2 3.30961 24.699 7.02611 6.10458 -2.39015 -1.72937
2224 3 1.63483 24.777 8.67473 0.585989 0.0262975 -0.450498
1327 1 3.44952 26.6905 5.07369 2.43391 0.868166 0.531994
1263 3 -0.0208478 23.1745 5.01531 -1.04389 1.68896 -0.92424
2222 1 1.81472 26.7319 6.92144 1.87755 -5.43561 -1.17049
2223 3 -0.0668289 26.7499 8.5292 -3.51979 -4.5366 -0.853167
1271 1 6.98107 23.1344 5.24577 0.39811 2.02326 4.19305
1328 2 5.02518 24.5317 5.15451 2.22196 2.25955 0.680425
2166 1 5.31322 23.016 7.10986 4.53016 1.83249 0.947659
2229 3 6.94379 24.819 6.98286 0.0910863 9.05001 1.71938
2226 3 5.41381 26.5127 6.70019 -1.68449 -2.63662 10.2284
2228 2 5.21541 24.9058 8.62881 -4.22832 -0.123981 0.116061
1331 2 6.94009 26.3805 5.02313 -0.558002 4.62788 -1.23433
2232 3 8.7847 24.9579 8.69577 -5.36825 -0.434189 -4.6928
2171 2 6.90696 22.8866 8.76366 2.83022 -0.0484606 -8.09333
2230 1 8.8355 26.5585 6.75287 -2.3908 -2.79467 0.51656
1332 3 8.83184 24.7694 5.11091 -0.387072 -2.39177 1.8295
2170 3 8.94731 23.0138 7.04753 -5.65023 -4.47657 2.31681
1275 3 10.6939 22.9655 5.17815 -4.93354 -1.90836 4.69046
1336 2 12.3083 25.1215 5.03011 -4.86593 -1.809 3.21462
2174 3 12.0368 22.9332 7.21616 4.1694 6.64141 -1.47776
2233 2 10.6153 24.7882 6.93339 0.497606 -2.04006 -8.25562
2234 1 12.4589 26.677 6.83552 -0.239523 -0.313676 -0.550827
1335 1 10.5109 26.6916 5.06409 0.142484 1.88352 3.87074
2235 3 10.614 26.639 8.55737 -0.041325 -1.4367 -0.291367
1339 2 14.2135 26.6041 5.15149 0.450753 -0.982803 8.21262
1279 3 14.1858 22.9307 5.12724 -0.74349 -4.65621 8.49733