ITEM: TIMESTEP
163200
ITEM: NUMBER OF ATOMS
13500
ITEM: BOX BOUNDS pp pp pp
-1.4546994390414625e-01 5.3665469943884233e+01
-1.4546994390414625e-01 5.3665469943884233e+01
-1.4546994390414625e-01 5.3665469943884233e+01
ITEM: ATOMS id type x y z vx vy vz
7 2 3.58394 1.41997 1.2111 0.545547 1.44858 2.47089
64 2 1.74411 3.33697 1.08768 4.94783 3.64866 3.72721
902 1 1.73048 1.52082 2.86843 -1.43937 -7.42553 -0.97814
965 1 3.48927 3.4516 3.00509 -5.062 2.67755 -5.80384
961 3 0.0994221 3.29236 3.02486 0.728463 -2.60172 -4.2155
3 2 -0.0898851 1.38397 1.17023 2.27254 -4.1602 1.37144
11 1 6.92705 1.32752 1.17037 2.02511 6.60862 1.05639
68 2 5.23757 3.39852 1.21299 4.86835 1.84898 -3.96172
906 2 5.07775 1.57273 2.95434 -1.44961 4.16403 2.31622
969 3 7.13544 3.18582 2.875 -0.867036 -2.19052 1.70005
910 3 8.79879 1.2987 3.05563 -5.13773 4.74082 3.48892
72 2 9.01168 3.10641 1.04672 0.219589 -0.0179455 -3.41722
15 1 10.3545 1.22183 1.1264 -4.3781 -0.595609 2.5999
76 2 12.0739 2.93971 1.16 7.03408 -3.78912 -0.984768
914 3 12.2643 1.45728 2.89244 2.31094 -1.2343 -5.37258
973 3 10.5195 3.24905 2.91602 1.95472 0.0664321 2.73713
19 3 14.1166 1.37901 1.09722 2.55853 6.14156 0.815751
80 1 15.8335 3.18626 1.29116 0.787518 0.429072 0.53061
918 2 16.064 1.49638 2.90233 -1.6906 -1.98148 3.04518
977 3 14.0966 3.07175 2.78704 1.79244 0.595184 -0.931299
981 1 17.9388 3.22791 3.07556 -0.309771 2.21662 -0.59353
23 2 17.8474 1.55347 1.36197 1.81893 0.5344 -0.745096
27 2 21.1633 1.27634 1.29638 3.32483 2.56863 5.34934
84 1 19.6602 3.08945 1.43472 6.90389 -0.417839 2.06268
922 1 19.4339 1.19713 3.16133 2.58957 1.07482 3.02607
985 3 21.2419 3.14377 3.18044 5.93623 -2.58409 0.682442
31 3 25.0917 1.27403 0.99963 3.82574 1.42359 1.80501
88 3 22.9667 3.23454 1.32325 0.658177 -3.84685 2.8339
926 3 23.1674 1.30338 2.94679 1.0277 -6.55599 -2.66775
989 3 24.9418 3.0555 2.90632 1.02064 3.85677 6.27628
92 3 26.6649 3.27639 1.14373 1.88524 1.98087 2.23988
67 2 3.34738 5.02113 1.07307 -6.02072 -0.642672 -4.10702
124 1 1.69314 6.87253 1.17645 1.02066 0.984304 1.82359
962 1 1.71545 5.10968 2.90452 -1.15309 -0.795907 4.85026
1025 2 3.5046 7.03264 2.90507 -2.0418 -3.33278 3.69832
127 2 3.47887 8.73644 1.06431 4.10463 0.609706 0.523881
1022 1 1.68637 8.75339 3.16492 0.50972 -0.618611 -3.45192
123 3 -0.125904 8.49827 1.08903 -4.11871 0.73593 3.05838
71 1 6.97821 4.89658 1.21953 2.01084 0.315748 0.899344
128 1 5.15454 6.58028 1.05275 -3.75429 -6.72077 0.794719
966 1 5.27188 5.22138 2.77833 -3.42253 4.47625 -0.292898
1029 2 7.13906 6.82571 2.83152 1.18615 -3.63885 9.28083
1026 3 5.34291 8.67733 3 0.897268 -3.63735 1.25428
131 3 6.93939 8.77185 1.19042 5.57672 7.86906 -0.556505
132 1 8.81126 6.78484 1.10773 2.51424 -3.34659 -2.04197
970 3 8.87121 4.94449 2.98863 4.72849 4.03818 0.872474
75 3 10.5849 4.97848 1.19818 7.11145 -0.0647365 2.75489
136 2 12.5279 6.76804 0.947432 0.652463 -1.09642 0.616376
974 1 12.5111 4.98257 2.91613 0.423482 -0.270045 1.18231
1033 2 10.7209 6.81189 2.75472 3.39776 -2.19262 -2.94752
1034 2 12.4831 8.55891 2.79899 -2.84778 4.44956 1.10182
135 1 10.533 8.61205 1.1908 0.215439 0.85365 4.69774
1030 1 8.84198 8.69879 2.98817 -4.93675 -3.08651 3.51072
79 2 14.0875 4.90018 1.22262 2.84722 -4.38969 2.77144
140 1 16.0881 6.79317 1.17663 4.081 -7.48187 -4.41858
978 2 15.9033 4.87551 3.03428 -2.05752 -0.739897 -3.55903
1037 1 14.0036 6.66249 2.93496 3.71095 -3.33201 0.371406
139 1 14.1677 8.56114 1.10664 -1.12919 3.8687 3.39262
1038 2 15.9421 8.4877 2.93153 -1.20286 1.99305 1.53562
143 2 17.68 8.47265 1.19184 3.276 -1.84806 -4.76861
83 2 17.817 4.68876 1.23158 4.85296 -1.3234 0.687017
1041 1 17.8165 6.58783 3.03312 -5.37819 3.94416 0.655754
87 2 21.3457 5.17827 1.26485 1.83653 -3.69829 -0.697761
144 3 19.4482 6.92884 1.24269 3.33187 -4.81549 -0.153053
982 1 19.5141 4.84966 3.07417 2.05603 -6.20972 -2.13438
1045 3 21.263 6.72704 3.0431 4.85059 2.96903 4.48013
147 3 21.4125 8.3126 1.16215 -1.37795 3.51951 0.390708
1042 2 19.5941 8.65264 2.94533 1.7862 4.41081 -2.14134
91 3 25.0998 5.09701 1.15046 -0.116756 -4.22311 -3.49448
148 3 23.3181 6.82757 1.26334 -3.02929 1.93045 -5.81247
986 3 23.3435 4.937 3.01973 5.39299 3.14866 7.16451
1049 3 25.0927 6.8189 3.14353 -0.146798 1.79409 -5.2386
151 1 25.0178 8.49555 1.15222 -0.404522 -0.346284 1.6282
1046 2 23.2815 8.44792 3.00904 0.678686 2.30588 -0.954925
1050 2 26.7426 8.62777 2.95735 -1.10281 -6.43529 6.3802
184 2 1.59374 10.304 1.00622 3.73969 1.73927 -4.62166
187 3 3.42731 12.1467 1.14632 0.182398 2.45197 -4.21935
1082 3 1.70131 12.0274 2.7774 1.07121 -0.834763 4.9494
1085 3 3.59058 10.2952 2.89786 -1.34374 0.62803 1.31452
183 3 -0.0814942 12.0787 1.20839 -4.09342 0.17572 -2.40938
188 1 5.31241 10.3141 1.19138 1.60711 -3.5597 1.36863
191 3 7.03412 12.0113 1.2253 -4.39265 -5.43311 -0.0494522
1086 3 5.1525 12.1232 3.10006 -1.54999 -1.23616 5.39636
1089 3 7.01655 10.465 3.07392 2.85866 -3.26056 1.2227
1090 1 8.56647 12.163 3.13825 0.249999 -3.65608 2.09245
192 2 8.83821 10.5263 1.15167 3.84444 1.62931 2.65402
195 2 10.4967 12.1005 1.24642 2.24079 -1.23511 -10.8376
196 1 12.4223 10.3018 1.26835 -2.045 2.15561 1.69494
1093 1 10.5546 10.318 2.94435 -7.4409 -0.039585 -0.84589
1094 1 12.34 12.2152 2.97344 -0.809256 6.54262 3.21858
199 2 14.1416 12.1434 1.37728 -1.5615 0.563679 0.66355
200 1 16.1499 10.1762 1.55116 -3.85559 2.58736 5.04175
1097 1 14.3116 10.2997 3.11004 -0.412078 3.28089 3.25007
1098 1 16.0939 12.0752 2.92686 -0.00926717 1.20128 0.552385
1101 1 17.7806 10.1351 3.07311 2.30566 -1.79362 0.320796
203 2 17.8443 12.1941 1.37784 -0.681979 3.62711 -0.879796
204 3 19.7623 10.2116 1.33235 0.605807 -0.884586 -0.511893
207 3 21.5338 11.8551 1.1329 -2.22343 -3.48004 6.70273
1102 2 19.834 11.9269 3.01405 -3.94876 5.17892 2.42882
1105 3 21.5337 10.2652 3.0286 1.42022 1.93789 -4.58984
208 2 23.5151 10.3312 0.986652 -2.63531 1.92883 3.13258
211 1 25.1841 12.0706 1.28933 -2.73161 1.08568 -2.3123
1106 2 23.3465 12.0719 2.84803 3.50428 -3.63512 -0.341296
1109 1 24.8035 10.3085 2.99788 1.06181 -1.05646 6.63483
1110 2 26.6714 12.0676 3.00093 -1.32313 -1.71057 -3.35616
212 2 26.7548 10.2285 0.952916 0.980776 2.41739 -4.32363
244 3 1.61904 13.9149 1.30892 -2.5003 3.0179 1.83848
247 3 3.47433 15.71 1.28258 5.33802 0.540528 -2.11693
1142 3 1.70598 15.8151 3.20686 -0.345096 8.31427 -0.397371
1145 3 3.30035 13.9702 3.08756 -3.04959 1.34779 1.78019
1205 3 3.72426 17.637 3.11822 7.69161 -3.03038 1.93279
304 3 1.70364 17.4636 0.956046 -1.40767 -2.58704 -1.0177
1141 3 -0.050195 13.9228 2.86136 -5.79012 -2.98949 -1.88625
1201 3 -0.0249878 17.4723 2.95169 2.05319 6.33827 -1.79933
248 3 5.22778 13.8279 1.22693 0.23955 -1.02608 -5.77982
251 3 7.17107 15.5017 1.26214 -0.760031 -2.47966 1.4573
1146 3 5.32412 15.7615 3.06797 -1.74733 -1.13066 -3.04106
1149 3 6.8533 13.9445 3.21673 -0.714149 -0.780445 0.60138
1209 3 7.19432 17.3811 3.04288 -0.886361 3.38797 -5.09295
308 1 5.28377 17.5826 1.3285 5.65714 0.432388 -2.09446
1150 2 8.77684 15.5126 2.92527 -1.70086 -5.0054 3.01833
312 1 8.94783 17.3938 1.02584 -0.454083 -1.99677 -0.540233
252 2 8.82895 13.7072 1.23365 -0.836702 0.252183 -2.0811
255 1 10.6403 15.7306 1.2738 -4.67629 -0.357812 -5.53391
256 2 12.3538 13.9377 1.31423 1.97938 0.0246319 5.39549
1153 1 10.5824 13.7278 2.96952 2.90513 -1.46915 -4.5165
1154 2 12.4677 15.7179 3.2538 -3.54299 -1.01295 -7.19585
1213 2 10.4741 17.7106 2.89073 3.73541 2.90417 -1.45065
316 3 12.603 17.5757 1.21262 -7.73701 1.31961 -4.15693
259 1 14.0834 15.7659 1.59696 -7.59822 -7.4944 -3.98084
260 2 16.2787 14.1464 1.35531 -0.54135 -2.74897 5.13741
1157 1 14.3671 13.9484 2.96026 1.15146 -0.902783 -1.63546
1158 2 16.4251 16.159 3.04806 6.48604 -3.52362 -5.4182
320 3 15.9085 17.5137 1.15071 -3.98614 8.80118 -0.307019
1217 2 14.4535 17.5542 3.05927 -0.771753 5.29482 -1.71792
263 2 18.0795 15.6772 1.13067 -5.18956 0.709618 -0.0101601
1221 1 17.9344 17.5115 2.71469 0.928815 -2.78465 -0.517023
1161 3 17.9848 13.6763 2.96398 5.3624 -1.12178 6.77349
264 1 19.7569 13.8394 1.30565 -2.32489 2.90545 -4.52179
267 2 21.1949 15.7115 1.44542 1.09667 -4.90767 -2.10628
1162 1 19.5191 15.8537 3.07742 0.162386 -0.298077 -4.99637
1165 1 21.454 13.6865 3.05603 0.80417 1.32364 -0.140031
1225 3 21.4047 17.3823 3.01713 -2.57656 3.34477 -2.58915
324 3 19.8277 17.5109 0.971717 -2.70547 5.67236 0.68029
268 2 23.0928 13.8574 1.22202 1.20039 0.6762 2.52511
271 2 24.8555 15.6739 1.13029 3.42369 -1.14601 -6.34726
1166 1 23.1345 15.6469 2.88803 1.12353 5.85733 -0.996346
1169 1 24.9722 13.8551 2.98472 -5.31863 -0.721322 0.536487
328 1 23.138 17.4046 1.20495 -8.83516 0.945646 -3.74508
1229 2 25.0757 17.4901 2.92215 -1.21677 -7.10642 4.2899
307 2 3.4861 19.3008 1.19361 5.0417 -4.00385 0.0666309
364 1 1.72176 21.1803 1.11986 4.63691 4.74667 5.57396
1202 3 1.6963 19.2354 2.93802 0.335518 2.70466 1.68707
1265 1 3.60599 21.1314 3.09458 -0.199661 0.686329 -3.06042
311 2 7.08223 19.3084 1.25411 0.829591 6.00869 -1.25611
368 1 5.25905 21.1048 1.03946 1.68108 -8.52913 2.58255
1206 2 5.51154 19.4121 3.07298 0.0851991 1.71727 3.98404
1269 1 7.1022 20.9434 3.16721 0.658644 -2.41697 -0.47429
1210 2 8.78969 19.2873 2.98604 4.03158 1.11704 -5.20971
372 2 8.74852 21.1099 1.24657 -4.49322 7.66206 -0.738556
315 1 10.5793 19.43 1.19043 -0.182699 -7.00645 -0.58518
376 3 12.5369 21.0453 1.20459 -1.45519 1.66994 3.80981
1214 3 12.5599 19.2778 2.91416 -7.24978 -0.478842 3.84386
1273 3 10.6473 21.0694 2.94704 -1.3076 -7.05781 -1.37488
319 1 14.3277 19.3076 1.3349 -1.88697 2.9846 -3.73197
380 3 16.0302 20.9802 1.40327 4.22989 0.721703 4.19045
1218 2 16.1245 19.1129 3.04851 -1.06975 3.73611 4.71927
1277 3 14.2815 21.0285 3.06106 0.527074 -2.5233 2.33541
1281 1 17.8633 21.0376 3.15948 5.71097 1.25197 -2.53438
323 2 17.8861 19.3503 1.30089 -1.63142 6.25503 3.86541
327 3 21.3701 19.4106 1.25176 -1.04557 -3.11857 0.0168589
384 3 19.4165 21.2377 1.19102 -3.55903 -4.96912 1.1833
1222 3 19.6238 19.4397 3.04469 1.13868 0.572213 1.47379
1285 1 21.2989 21.251 2.97137 1.07539 3.62188 2.09971
331 1 24.8641 19.403 1.2449 0.447068 -2.74152 0.690851
388 2 22.9553 21.1696 1.26841 1.87318 3.06614 -1.47715
1226 2 23.1559 19.3919 2.94256 -6.68955 -3.94778 7.22695
1289 3 25.0026 21.3143 2.99922 -0.772044 2.91192 1.41225
1230 2 26.6265 19.2912 2.9341 1.19301 1.83343 -0.0183714
392 1 26.7379 21.0533 1.33508 -10.502 1.70025 2.10685
367 2 3.29194 22.6715 1.10647 3.07835 3.39545 1.54257
424 1 1.61895 24.6402 1.31653 1.09584 1.31696 0.359238
1262 2 1.5957 22.9249 3.251 0.924515 -0.312746 -0.824507
1325 1 3.37372 24.7812 3.01596 3.97711 -2.22649 -3.70265
427 2 3.51593 26.3104 1.18455 6.16946 2.77936 3.81811
1322 2 1.61643 26.3438 3.13552 2.46719 -0.845545 0.00902911
1321 1 -0.0625416 24.7144 3.1506 -0.460023 -5.12596 -2.78193
363 2 -0.129084 22.7145 1.29515 -6.35539 2.69282 -2.25195
423 2 0.119622 26.5384 1.38518 -2.04982 -0.489356 4.75965
371 2 6.89735 22.8866 1.35735 3.27542 2.70674 5.04648
428 1 5.38808 24.4808 1.12806 -0.5908 -2.29684 0.990884
1266 2 5.17724 22.853 3.15021 0.384566 -0.238469 -2.23961
1329 3 7.10109 24.4896 3.07531 4.45989 0.84396 0.449259
431 2 7.04801 26.3084 1.3042 -2.72731 -2.13139 1.54644
1326 2 5.24102 26.6052 3.01858 0.870731 1.20343 1.65879
432 1 8.80199 24.5896 0.991664 1.40894 -5.97302 -2.93983
1270 2 8.75872 22.6031 3.03831 7.3564 -1.93589 0.167129
1330 2 8.86907 26.441 3.15903 1.85346 -1.24522 0.346843
375 3 10.7 22.858 1.19512 -2.26057 -6.66821 0.290893
436 3 12.2711 24.7748 1.44528 0.824552 1.55299 -4.19108
1274 1 12.5067 22.9423 3.04291 2.35912 1.04819 2.65733
1333 1 10.557 24.6267 3.15249 0.400965 -0.183565 1.64434
435 3 10.5794 26.5007 1.16694 0.860022 2.15501 1.39703
1334 1 12.3749 26.6431 3.11337 3.96232 -0.553469 -0.921024
379 3 14.1478 22.8763 1.13187 -1.04549 -1.39633 1.87242
440 3 15.8435 24.6136 1.3987 -3.97603 -3.35145 2.16089
1278 2 16.0062 22.6337 3.20564 2.3874 2.63245 2.52328
1337 3 14.1541 24.6917 3.3751 -0.289222 -0.385154 1.4617
1338 3 15.9908 26.3846 3.14702 2.4129 -1.22796 -1.9124
439 1 14.3068 26.5384 1.41 2.13769 -0.128183 -2.3475
443 3 17.7447 26.5253 1.56041 0.286277 -0.931209 -6.06365
383 3 17.6825 22.8792 1.33535 -4.1287 -1.48831 -1.48719
1341 3 17.5324 24.5489 3.10348 0.373482 -1.81339 5.33836
387 3 21.1734 22.9863 1.0664 2.49468 -0.648967 -2.78489
444 3 19.4544 24.8905 1.26336 4.20249 -1.76786 0.145831
1282 3 19.6083 22.784 2.98067 -3.8097 -1.34854 -1.72513
1345 2 21.3643 24.7009 2.83635 -1.12033 -2.84361 -4.62988
447 1 21.2795 26.5808 1.3345 1.34586 -1.00011 0.78886
1342 3 19.7055 26.6713 3.11593 -1.91566 1.93913 -3.1092
391 2 24.9056 23.298 1.24032 -0.554068 -2.6655 -2.48233
448 1 22.966 24.8261 1.25011 -7.81417 -0.340465 2.43766
1286 1 23.2086 23.1846 2.93208 -3.45896 -2.72711 2.27251
1349 2 24.9292 24.9475 2.9381 -3.72059 -0.350327 -1.79889
1346 1 23.1787 26.6701 3.02284 1.85075 -2.51497 -6.66672
451 2 24.7437 26.5814 1.13873 -2.8385 3.9327 2.0994
452 1 26.7424 24.988 1.21347 3.15092 2.06877 1.31553
907 1 3.54795 1.50585 4.77493 -2.08538 -0.961282 1.39311
964 2 1.69437 3.16139 4.71167 -4.22911 1.69516 2.7722
1802 3 1.85222 1.44225 6.62311 1.79782 -1.56288 0.295393
1865 3 3.4509 3.23685 6.58 -1.9022 -1.46454 -3.66105
1807 3 3.42163 1.34311 8.35278 -5.82385 2.35472 -3.90071
1864 2 1.71144 3.34491 8.26759 -0.134108 0.887914 6.23769
1861 3 -0.060216 3.20616 6.64551 -6.49251 -3.69796 4.49352
911 3 6.95149 1.65272 4.72809 10.8808 1.56588 4.38965
968 2 4.9897 3.45764 4.63314 -2.53631 1.58742 1.1848
1806 3 5.23209 1.3652 6.46749 3.75901 -2.475 -4.34176
1869 3 6.8982 3.25847 6.65945 -6.13558 -6.54604 5.93336
1811 3 7.17393 1.49645 8.537 -1.27057 -5.14495 -2.06424
1868 3 4.86846 3.07089 8.52526 5.37861 -9.08225 -2.43623
1810 3 8.65419 1.57166 6.43127 -0.96558 2.21441 2.55875
1872 3 8.66452 3.28793 8.46452 2.80454 -0.224911 -8.45937
972 3 8.68201 3.23355 4.78542 5.09413 -4.84517 -4.36584
915 3 10.5131 1.44733 4.73809 7.3893 2.07612 8.5545
976 3 12.3408 3.23949 4.64042 -4.71921 2.26408 5.25446
1814 3 12.1532 1.55196 6.70349 -3.12381 9.12531 -0.407381
1873 3 10.5197 3.33025 6.45005 -0.194163 -0.129078 -0.577524
1815 3 10.3904 1.67091 8.4687 1.17664 -0.0111013 0.123142
1876 3 12.2228 3.28243 8.41057 -4.57705 3.05789 -1.73657
919 2 13.8595 1.36377 4.83383 -0.366168 -4.9646 -0.192744
980 1 15.8847 2.92332 4.77606 -5.03341 0.997438 -1.42327
1818 3 15.8637 1.5827 6.65312 2.29554 6.50457 -5.20183
1877 3 13.8325 3.29829 6.50896 1.46028 -3.45825 7.35299
1880 2 16.0065 3.16757 8.51733 1.73952 -1.02379 -0.416184
1819 3 14.1409 1.60766 8.32723 -0.880372 -2.78998 0.777203
1823 3 17.7117 1.39154 8.31855 -0.2802 -4.05916 -0.977289
1881 3 17.5696 3.15186 6.64679 0.66231 7.04893 0.219271
923 1 17.7891 1.35141 4.7824 -0.834191 -2.33829 1.01857
927 3 21.3204 1.34991 4.81106 1.47309 -6.7173 1.01675
984 2 19.3629 3.22418 4.92623 0.737401 1.4123 5.62237
1822 2 19.3013 1.45852 6.45293 0.728607 -2.27135 0.450482
1885 1 21.2575 3.31964 6.52708 2.20519 -1.8406 -3.14499
1827 1 21.3007 1.54809 8.28124 -1.94076 1.58445 -2.57278
1884 2 19.5096 3.14971 8.27946 -11.3718 -1.71296 1.11971
931 3 24.9702 1.24169 4.78266 1.00154 -6.23706 0.803722
988 2 23.1364 3.17018 4.71861 1.15746 -2.31189 -5.69688
1826 3 23.0791 1.64151 6.49673 -0.703048 5.09738 -2.38249
1889 3 25.0114 3.24642 6.60597 -0.904277 -1.54418 -1.3892
1888 3 23.0952 3.24845 8.29475 -2.53506 -1.7508 2.2455
1831 3 24.8626 1.38939 8.32157 3.36058 -0.280148 7.30809
1830 3 26.7434 1.58139 6.53272 3.5593 1.28637 7.07996
992 3 26.7232 3.29441 4.76916 -2.13851 0.779164 -2.26296
1892 3 26.5846 3.41976 8.33342 3.91643 -2.43497 0.648197
967 2 3.43786 5.2766 4.69335 -6.3775 3.74372 3.917
1024 1 1.77937 6.7732 4.78155 3.20323 -4.99894 4.41399
1862 1 1.53443 5.02982 6.46581 -0.784285 1.92953 3.22026
1925 1 3.36455 6.84267 6.5851 -4.03091 -6.22318 -0.340815
1867 2 3.39776 4.99826 8.28575 -0.373191 6.75484 -1.0403
1924 3 1.7857 6.74828 8.34468 1.34371 -6.26275 -1.06949
1922 2 1.66921 8.55111 6.51457 -7.24401 0.170426 -0.250606
1927 1 3.54998 8.66641 8.37429 -0.45113 -1.41808 4.79574
1863 3 -0.0802783 4.9261 8.349 -0.266398 5.39614 4.92979
1027 1 3.40614 8.56763 4.76876 1.82231 1.15223 -2.03488
1923 1 -0.0248156 8.66002 8.34988 1.00282 -12.772 -1.95809
963 2 -0.0936054 5.07889 4.82406 5.9211 0.926288 1.92495
971 3 7.15401 5.05157 4.58992 -4.40111 -0.408979 1.14423
1028 3 5.25618 6.76473 4.57463 -0.337199 1.79201 -0.834539
1866 3 5.20747 5.03341 6.51186 -3.21673 -4.20955 9.11835
1929 2 7.01134 6.72848 6.66381 -1.94021 7.54807 3.89082
1928 3 5.22199 6.79451 8.47228 0.34337 -2.41298 -0.334631
1871 2 6.88564 5.07563 8.55907 -2.51667 4.51348 5.88214
1931 1 7.07283 8.69786 8.51099 0.288662 -3.43367 1.56787
1930 2 8.79548 8.48064 6.44871 2.98117 -0.746314 -0.00865214
1926 2 5.46222 8.45999 6.62618 -7.79968 -6.84487 1.06626
1031 3 7.03144 8.54855 4.76696 1.72431 -1.2667 -5.75569
1932 1 8.55452 6.81833 8.38527 0.774158 -2.28922 0.792614
1870 3 8.63643 5.09119 6.53461 -1.17514 -7.94217 -1.65261
1032 1 8.94724 7.00192 4.64185 -0.243271 -1.45152 1.27971
975 3 10.6778 5.02478 4.5657 -5.63071 1.18396 1.89363
1036 3 12.3453 6.83089 4.73171 -0.894859 -6.77983 0.0919498
1874 3 12.2425 5.0961 6.49517 1.20791 -0.384256 -0.204179
1933 2 10.2781 6.76081 6.55515 -3.63975 -2.26306 -3.01401
1875 3 10.3691 4.88448 8.41589 -2.30295 -3.14986 4.29901
1936 1 12.0609 6.80382 8.53408 3.86361 -3.33472 -1.36316
1035 1 10.792 8.78575 4.67268 -2.68317 5.70948 -1.99242
1934 2 12.2149 8.55127 6.60251 0.983222 1.16014 2.20651
1935 3 10.4184 8.63598 8.41478 1.92243 5.17482 3.94947
979 2 14.3457 4.80623 4.72812 0.460419 -2.96478 3.24722
1040 1 15.9917 6.55676 4.89701 0.337205 4.89842 -4.72606
1878 3 15.9666 4.98036 6.70121 -1.98126 3.48205 3.29712
1937 3 13.962 6.81974 6.57997 -0.773272 -1.04538 -3.97415
1940 3 15.9214 6.96571 8.36542 -2.50675 -1.64451 -6.12389
1879 2 14.2952 4.94224 8.29094 6.11536 4.12192 -1.98874
1938 1 16.004 8.66222 6.53046 4.94301 4.07769 2.55184
1039 1 14.243 8.4287 4.93501 3.63115 -4.47078 5.70629
1939 2 13.9203 8.42653 8.15895 -0.280235 3.1133 -1.63207
983 2 17.6144 4.75067 4.7423 -2.82321 -4.03818 -0.964056
1883 1 17.6136 4.97964 8.36751 -2.39791 -0.131516 2.54922
1941 2 17.7735 6.77872 6.72643 -3.92635 -3.74079 -1.76209
1043 1 17.8881 8.29398 4.71792 1.35916 -1.76991 3.92475
1943 1 18.0134 8.54467 8.35341 -4.2673 2.13944 -3.69452
987 1 21.3152 5.08628 4.75815 -1.61666 -8.09707 -0.584093
1044 2 19.48 6.66816 4.78469 -4.89382 -3.13777 2.05307
1882 1 19.4783 4.99434 6.52439 -3.12712 -0.651825 -3.46373
1945 2 21.3247 6.82687 6.40024 0.0572265 -2.27016 2.23699
1887 2 21.2891 4.95606 8.15616 2.21553 2.55887 3.37707
1947 2 21.4407 8.3696 8.16191 3.44617 -0.853005 3.93566
1944 1 19.565 6.82374 8.24276 4.48981 2.68821 4.59355
1047 1 21.3403 8.51474 4.73143 3.86571 1.86358 -0.151923
1942 3 19.6582 8.67178 6.47044 -1.67447 -3.45044 -2.28275
991 3 24.8629 4.98401 4.84655 2.98323 -0.988805 -0.870053
1048 1 23.1412 6.73015 4.65939 -3.48096 1.00185 1.03662
1886 2 23.11 5.04488 6.48717 0.940822 0.298321 -0.211855
1949 2 24.8352 6.83767 6.43826 -1.14369 -0.76395 -2.19249
1948 1 22.9137 6.71994 8.45991 4.89884 4.34449 1.88368
1891 3 24.8916 5.04965 8.30506 2.86683 -7.08883 -0.19966
1946 1 23.0192 8.43037 6.52633 -2.81109 0.806568 0.125052
1951 2 24.9091 8.67306 8.18535 3.21918 2.49805 -11.1204
1051 1 24.8422 8.66128 4.91357 6.76552 0.24161 -0.262309
1950 1 26.7385 8.61361 6.4393 -2.61424 0.528396 -3.69013
1084 2 1.72469 10.2935 4.89386 -0.694792 -5.52271 -1.88954
1087 3 3.40388 12.315 4.75583 1.52106 -2.48498 2.32659
1982 1 1.77711 12.1483 6.66065 -3.60589 1.63315 -1.97347
1985 3 3.48488 10.3352 6.49503 2.60008 -4.882 3.28902
1984 2 1.93191 10.4702 8.28868 2.69291 3.25975 -2.41021
1987 2 3.73472 12.2237 8.34086 1.44766 3.57065 -1.02796
1983 2 -0.0907657 12.2027 8.29056 -0.207623 -1.80531 1.17849
1981 1 -0.0872172 10.3881 6.52766 -1.53787 4.5563 1.30886
1083 2 -0.073611 12.0636 5.03429 0.713582 1.9627 3.49479
1088 3 5.20168 10.3069 4.90991 -2.31342 4.41595 1.24635
1091 2 6.97203 12.1477 4.85064 4.1277 -6.43929 -1.43421
1986 3 5.2849 12.2194 6.52541 -6.73447 1.9977 -1.8154
1989 1 7.2477 10.3219 6.64493 -0.924515 3.5033 -3.98662
1988 2 5.15055 10.2357 8.35013 -1.22963 -2.90804 -2.2589
1991 1 6.87228 12.1492 8.4395 -0.406888 -1.83101 -0.81439
1990 1 8.71546 12.1769 6.72632 -2.54025 -1.923 1.57555
1092 2 8.85543 10.6072 4.93683 2.36003 -0.996797 0.571883
1992 2 8.89772 10.4974 8.27262 -2.31947 -1.52166 1.00939
1095 2 10.6687 12.187 4.73242 7.78319 -0.552858 0.702382
1096 2 12.568 10.1306 4.64544 0.713107 -2.8663 2.99497
1993 1 10.647 10.5754 6.62543 -1.90611 3.81535 -4.43433
1994 1 12.439 12.2313 6.48902 0.486375 5.51899 -5.72883
1996 2 12.177 10.4643 8.47228 3.41935 2.23691 3.5656
1995 1 10.7622 12.4272 8.37181 0.982606 2.97505 -2.20669
1100 2 16.0443 10.0811 4.81473 1.79243 -0.9152 0.267884
1099 2 14.175 12.3365 4.775 1.37417 -3.32592 0.200176
1997 1 14.185 10.1647 6.58438 2.18751 -3.78047 -3.5386
1998 1 15.9 12.1339 6.77046 -1.63108 3.11771 1.1937
1999 2 14.1382 12.2514 8.20675 -2.59871 1.20273 0.147065
2000 2 15.9286 10.3292 8.543 -7.20562 3.7711 -1.1357
1103 3 17.6654 11.9667 4.94111 -4.27911 0.531356 -1.18345
2003 3 17.7354 12.1691 8.3756 -3.74194 0.632184 6.48292
2001 3 17.7983 10.2924 6.76624 -2.30499 2.35931 3.72703
1104 3 19.5004 10.3624 4.66096 2.09967 2.82024 -0.251229
1107 3 21.4482 11.9831 4.8952 -6.67602 -1.64919 0.805247
2002 3 19.2812 12.3385 6.60101 -5.3017 1.22176 0.536727
2005 1 21.3718 10.3995 6.55466 -0.517003 1.59933 -2.19404
2007 3 21.3124 12.2609 8.34259 -5.02072 -2.41998 6.46042
2004 3 19.6857 10.3735 8.44749 -1.38319 2.46078 -5.21108
1108 2 23.1989 10.3433 4.78804 1.03462 -3.18119 -4.217
1111 1 24.8208 12.2961 4.79876 4.53542 -1.36277 -1.81155
2006 1 23.1426 12.2237 6.72004 -0.87285 -1.35376 8.69147
2009 2 24.7375 10.417 6.53714 -7.35183 -6.25752 -0.884615
2011 1 24.8994 12.2161 8.2315 0.417373 -5.82349 2.94463
2008 1 23.0612 10.3425 8.32035 0.279885 4.59248 0.521915
1112 2 26.4399 10.2447 4.88357 -0.715346 -2.50506 -0.943164
2012 1 26.675 10.3981 8.32546 2.11957 1.35241 1.65904
1144 3 1.62038 14.191 4.81018 5.66093 -3.38946 -5.37456
1147 3 3.48532 16.0208 4.72 -1.46101 -2.80401 -0.980977
2042 1 1.80392 15.7762 6.85493 -2.45261 -3.66934 3.53334
2045 2 3.34595 14.2397 6.50263 -0.838734 0.398733 2.1211
2047 2 3.3913 15.8202 8.41013 2.54239 4.5316 -0.0719857
2044 1 1.7441 14.1667 8.54878 -1.76392 -0.506894 -0.154316
1204 3 1.76188 17.6568 4.88997 0.394371 1.17366 -0.300973
2105 1 3.49754 17.5951 6.78963 -7.68168 6.16266 4.3615
1143 3 -0.120152 15.9421 4.88369 -0.217399 2.32204 2.98698
2041 2 0.0617495 14.0482 6.56843 3.47167 -5.52534 -6.79236
2101 3 -0.0143848 17.5946 6.59326 3.85455 -2.17582 -3.21204
2104 2 1.69312 17.7255 8.37495 1.35816 -3.23321 4.22306
1148 3 5.1684 14.04 4.87869 -2.54591 -1.61462 -6.18363
1151 3 7.22509 15.5598 4.86285 -4.03225 5.0946 -3.36276
2046 1 5.22583 15.9175 6.69867 -0.301746 2.10693 -0.785748
2049 2 6.99622 14.1488 6.66636 4.4541 -1.9916 -2.69713
2051 1 7.06112 15.7845 8.28833 -0.628904 0.428384 0.595624
2048 1 5.26166 14.184 8.38513 -2.30658 -0.217101 0.266426
2108 2 5.06859 17.7154 8.55532 -2.90263 -1.22778 -2.7313
1208 2 5.42932 17.6383 4.96886 1.03697 -2.40741 -7.32734
2109 2 7.10869 17.457 6.6503 -4.49508 8.09324 0.159163
2052 2 8.56942 14.0225 8.33671 2.89103 -2.44208 0.893234
2050 3 8.79404 15.8475 6.6023 2.69152 0.712521 -2.42616
2112 2 9.01098 17.7028 8.49125 3.16868 -2.65426 0.310423
1152 1 8.95042 13.9117 4.87269 -1.52422 -1.40041 1.82869
1212 3 8.89765 17.5068 4.72359 -0.818168 0.6567 6.45906
1156 1 12.4839 14.1209 4.8846 -1.98793 5.12126 1.13514
1155 3 10.6963 15.8383 4.59146 -1.39013 -1.4361 0.990432
2053 2 10.4058 14.0419 6.51157 2.58175 -3.71079 -3.08143
2054 3 12.4386 15.7756 6.52684 -0.635352 -7.99599 -3.38383
2116 3 12.3675 17.4638 8.33342 4.04903 -1.87439 0.281705
2055 1 10.7763 15.7035 8.36855 0.387851 2.52908 3.03368
2113 3 10.5992 17.5149 6.622 -1.18518 -0.464806 0.664028
1216 2 12.5915 17.5058 4.74929 0.693716 3.60361 1.25988
2056 3 12.514 14.0924 8.39609 -1.97928 -1.59381 2.76163
1159 1 14.4781 15.6428 4.63766 3.91133 1.63602 -1.37463
1160 2 16.0407 13.8921 4.81307 -0.396161 7.11288 4.54396
2057 3 14.4814 14.0486 6.7259 -0.367448 0.19743 -0.504433
2058 3 16.1511 15.6977 6.72756 -0.506014 -3.40816 0.361303
2060 3 16.0181 14.0518 8.73597 0.578531 -1.91519 1.53969
2059 1 14.2734 15.8157 8.61291 -9.54979 -4.59876 -2.08651
2120 3 15.9428 17.5147 8.44447 -5.73404 -2.70154 -0.869025
2117 3 14.203 17.5395 6.59093 4.04349 2.43281 -5.36618
1220 1 15.9703 17.5653 4.90986 -4.42582 -2.42026 4.06781
2061 2 17.6255 13.9288 6.53304 -4.13375 -6.26167 4.38742
2121 2 17.6991 17.544 6.42356 -0.241155 2.87698 3.59005
1163 3 17.9065 15.6431 4.85402 4.1458 -3.18507 -2.90961
1164 3 19.7432 13.8304 4.72791 -4.78876 1.44942 -4.22086
2063 3 17.8608 15.8469 8.39685 -0.575217 0.605341 -2.59931
1167 3 21.3672 15.6781 4.69684 -3.16511 -2.69581 1.94195
2062 3 19.4325 15.8144 6.67689 0.170396 1.05997 -2.151
2065 1 21.2489 14.1585 6.55243 0.673269 -2.14601 -2.5792
2067 2 21.4544 15.6341 8.51188 -3.1501 -2.42673 1.13439
2064 3 19.5431 13.9681 8.37608 2.03329 1.75261 6.20299
2124 1 19.5908 17.5725 8.3592 -4.37115 -2.40154 -1.47436
2125 2 21.5596 17.3852 6.33206 2.5878 0.410755 3.3223
1224 2 19.6225 17.4016 4.90217 0.858818 1.89247 2.95272
1168 2 23.235 13.9408 4.56388 1.29506 2.57277 -2.97647
1171 3 24.9804 15.7197 4.65031 2.55823 2.0552 0.557531
2066 3 23.1758 15.554 6.46962 -3.79331 1.26124 0.190692
2069 2 24.8368 13.9794 6.57816 -10.0331 -1.13708 1.65651
2071 2 25.0921 15.8264 8.33896 0.955344 1.72828 -0.164149
2068 1 23.176 13.8992 8.42922 1.00661 0.485396 1.14418
1228 2 23.3646 17.3797 4.72744 -2.27161 -2.19394 -0.0650519
2128 1 23.1836 17.4335 8.23914 0.810562 2.90234 -4.30455
2129 2 24.9577 17.6564 6.33295 3.06833 -0.194845 -2.35323
1232 1 26.7268 17.701 4.79281 2.89932 3.27031 -5.57767
2132 3 26.6514 17.6154 8.29855 1.2221 -1.81502 0.269106
2070 3 26.752 15.7944 6.39201 0.761122 -5.466 0.533085
2072 1 26.7055 14.1096 8.08623 -0.20911 5.30275 0.421836
1172 3 26.6778 13.7803 4.85262 -4.29352 -3.38451 -3.09887
1207 2 3.66185 19.2805 4.84724 3.91438 2.23442 -5.61965
1264 1 1.70402 21.1315 4.77561 -2.61875 2.48393 0.371079
2102 2 1.69128 19.5483 6.48697 -5.07123 -3.3421 -5.54792
2165 2 3.37359 21.0775 6.75868 1.49015 -6.57153 -2.24383
2164 1 1.56544 21.4931 8.31523 3.06512 -0.286009 -0.780964
2107 1 3.4622 19.5513 8.43449 5.16177 0.0942717 -1.85111
1203 3 -0.015705 19.3562 4.88494 6.17871 3.26246 0.640531
1211 1 6.93295 19.3104 5.17865 3.46565 -1.9542 -0.581497
1268 1 5.20408 21.1389 4.94094 2.10357 3.53675 -2.78563
2106 1 5.06217 19.5606 6.7572 0.770865 -4.63178 1.09044
2169 2 7.13059 21.0457 6.62554 0.477741 -2.55456 0.744665
2111 3 7.10539 19.3893 8.34486 5.10766 0.260828 6.0272
2168 1 5.08907 21.3122 8.31811 2.13514 -0.804077 4.18971
2172 1 8.88783 21.185 8.55442 7.38588 -2.75694 7.20422
1272 1 8.95549 21.0296 4.80538 -3.54581 -0.231179 1.86117
2110 1 8.90719 19.4556 6.58481 0.14931 -5.27371 3.62253
1215 3 10.6466 19.3506 4.9687 0.476704 0.552663 3.50392
1276 2 12.5102 21.0741 4.67307 -1.77491 1.51053 -1.46185
2114 3 12.4706 19.3071 6.47104 -1.18668 7.47085 -1.44915
2173 2 10.4924 21.13 6.70793 -12.1206 -2.04867 0.981978
2115 1 10.7875 19.3718 8.42906 3.16169 -0.255307 -1.14156
2176 2 12.422 21.0468 8.59039 -3.69017 0.920734 2.39269
1219 1 14.3153 19.3484 4.93695 -2.54204 -3.10671 -2.46123
1280 2 16.006 20.931 4.7087 3.23788 -1.45129 -0.936641
2118 2 15.9936 19.1742 6.59002 -1.29706 -3.56387 -4.05994
2177 1 14.4618 20.98 6.6186 4.27632 -0.179729 -2.57491
2180 1 16.279 21.0944 8.65453 0.417774 5.75982 -0.562646
2119 2 14.4802 19.2195 8.39252 -1.22867 5.06652 -3.51019
2181 3 17.7645 21.0458 6.62979 -1.62695 -4.38295 -0.21996
2123 1 17.8859 19.2215 8.0338 2.65591 0.724226 2.2599
1223 1 17.8012 19.2618 4.81478 -4.15521 -8.79092 -1.76229
1227 1 21.4934 19.2564 4.75255 -1.67513 -3.60317 -0.361035
1284 2 19.738 21.022 4.81594 0.82429 -1.05521 -2.02885
2122 1 19.7557 19.1438 6.35184 -1.55468 -0.912273 6.22546
2185 1 21.3296 21.1585 6.36323 5.82539 -3.16163 -0.453753
2127 2 21.3998 19.3804 8.26626 0.503049 -1.62329 0.374279
2184 2 19.7212 20.9759 8.05488 -3.96392 1.49873 -5.77263
1231 1 25.0323 19.3833 4.65872 -0.937243 0.736691 3.47914
1288 2 23.0872 21.1681 4.48801 -0.872783 1.75129 -5.81225
2126 1 23.2629 19.5014 6.50428 -8.09159 -1.43705 0.990989
2189 1 24.9593 21.4424 6.5519 -1.54002 5.50454 -2.19883
2188 2 23.0714 21.0609 8.25036 4.88174 -7.34824 -1.84418
2131 2 24.9456 19.5176 8.42975 1.35201 4.41943 -3.04735
2130 2 26.7432 19.4876 6.55929 0.567499 -0.526324 -2.96957
1267 1 3.48017 22.9555 4.83944 0.32532 1.00155 -1.49491
1324 2 1.58618 24.6436 4.9636 -2.18729 -4.04218 1.88054
2162 1 1.69825 23.0311 6.64337 5.03123 2.35089 3.90145
2225 3 3.39608 24.7584 6.67479 -2.25516 3.22962 -4.38661
2227 3 3.52966 26.5989 8.46135 0.875681 2.68616 0.860495
2224 2 1.60268 24.9092 8.60915 4.66944 -1.04882 -2.20934
2167 2 3.45719 23.1193 8.55183 -0.777121 2.56384 -1.97148
2222 1 1.52322 26.4792 6.87839 0.236987 1.62714 -6.2842
1327 1 3.27979 26.3885 4.75017 -2.21324 -0.458926 1.16365
1271 3 7.23426 22.7836 4.9302 -3.94936 -3.3499 3.06838
1328 3 5.34697 24.7457 4.86628 -1.65647 6.45902 1.25513
2166 3 5.1922 23.0326 6.51877 -2.43429 2.8971 -9.07185
2229 3 7.18535 24.7061 6.73083 0.980216 1.51305 -5.47125
2228 3 5.37532 24.9054 8.56802 -2.15635 0.260044 4.22353
2171 3 7.02241 22.9555 8.50254 -2.90353 -2.63939 -3.82664
2226 3 5.23813 26.6101 6.52517 3.3194 2.52528 -7.72138
1331 3 7.09802 26.1641 4.95095 -2.7746 -3.025 -4.21972
2231 3 7.26487 26.5906 8.33313 -0.578335 6.82423 -4.2186
2230 1 9.09908 26.3878 6.39694 -6.91504 3.17592 2.24257
2170 3 8.91088 22.9889 6.66128 -1.44721 3.19854 0.524145
1332 2 9.01186 24.7084 4.93587 2.86633 5.6398 -1.83041
2232 3 9.01076 24.8224 8.40999 4.35293 0.723987 -1.64027
1275 1 10.5959 22.9385 4.88419 -2.60047 3.37964 5.40229
1336 2 12.1234 24.6972 4.7621 1.01413 -1.33709 -6.5176
2174 1 12.357 22.6829 6.75854 1.85004 5.91143 -3.2696
2233 2 10.7817 24.4853 6.64199 -6.47899 -0.416922 1.14874
2175 3 10.4351 23.0688 8.46623 -4.98646 3.42957 3.03539