ITEM: TIMESTEP
55800
ITEM: NUMBER OF ATOMS
13500
ITEM: BOX BOUNDS pp pp pp
-1.4344732041826802e-01 5.3663447320412530e+01
-1.4344732041826802e-01 5.3663447320412530e+01
-1.4344732041826802e-01 5.3663447320412530e+01
ITEM: ATOMS id type x y z vx vy vz
7 3 3.56131 1.50993 1.58084 0.315889 -1.32616 2.44398
64 2 1.97988 3.61904 1.59308 -3.58306 0.772605 -0.344905
902 3 1.64198 1.52833 3.37807 3.4703 -1.44882 1.63083
965 1 3.42732 3.22082 3.43712 -1.02545 3.37515 2.30177
65 1 3.83419 3.73331 -0.0849836 0.336403 1.63862 -5.04804
2 3 1.49502 1.73694 0.10135 3.34128 -0.488568 2.37373
3 3 -0.112555 1.63728 1.58697 2.79682 0.580179 -3.25079
61 1 -0.128252 3.52628 -0.099256 4.10052 4.01153 0.715427
11 1 6.83043 1.60328 1.7815 -7.69322 -6.81772 1.99267
68 2 5.15197 3.46897 1.75267 0.715336 -0.659594 -4.50126
906 2 5.11637 1.55233 3.3841 5.88392 2.45761 1.23291
969 3 6.91139 3.48463 3.30782 -0.798099 -3.17369 5.68914
6 3 5.41729 1.54136 -0.0694492 -5.34242 2.46008 -1.15516
910 3 8.76004 1.71285 3.42463 -0.575976 -2.19074 6.35868
72 2 9.03604 3.42368 1.55469 0.438474 2.64462 1.04607
15 3 10.7563 1.39371 1.61228 2.39986 -2.59568 -2.51241
76 2 12.2812 3.44702 1.62494 0.0889821 -3.86016 6.67394
914 1 12.6802 1.60598 3.4176 0.130162 0.416472 -2.05316
973 1 10.7524 3.37121 3.59506 -2.33609 3.03556 -0.17615
913 1 10.8949 -0.021798 3.65692 0.249391 5.82128 0.847235
19 1 14.299 1.73324 1.42541 -3.43472 -1.55272 2.89978
80 1 16.0381 3.30857 1.74108 -2.45932 1.65002 -1.98203
918 2 15.8573 1.59758 3.30291 0.615186 5.68962 -7.43765
977 1 14.1349 3.51808 3.37314 3.00941 -3.39998 1.70787
917 2 14.1957 -0.107753 3.34043 0.981994 -11.9837 -0.913348
20 1 15.9203 -0.0690722 1.59702 0.324425 -2.68878 -0.0350869
981 3 17.8503 3.38633 3.47135 6.42847 2.50707 3.51513
81 1 17.9099 3.58831 -0.136997 6.25839 -0.642922 -0.846432
23 2 17.9847 1.45377 1.72851 -3.53504 3.67636 0.308139
27 2 21.4158 1.62285 1.51277 2.93406 4.39256 1.85281
84 3 19.635 3.45186 1.49511 -1.32883 2.44077 4.70843
922 3 19.486 1.86818 3.44778 0.934683 -1.84816 2.00879
985 2 21.3188 3.53744 3.30049 -6.75792 -4.13416 -0.845941
925 1 21.3632 -0.0618597 3.16911 2.46139 -3.81271 2.47091
85 1 21.4238 3.587 -0.0102749 2.24075 0.332876 0.357007
25 1 21.3925 0.0740256 -0.139998 0.320766 0.864515 0.518196
31 2 24.9204 1.85328 1.55937 0.163622 0.489905 1.70475
88 2 23.2929 3.4055 1.7952 -6.65776 -3.39442 6.45621
926 1 23.2031 1.54262 3.49833 -2.30423 0.594797 1.13061
989 3 24.9866 3.61361 3.34122 -10.0909 2.18243 -4.61026
28 2 23.1818 -0.092787 1.43618 0.568968 0.674201 -1.89131
32 2 26.5816 -0.0291308 1.62775 0.286969 0.659705 2.88213
92 1 26.6077 3.49097 1.50689 -5.18288 7.40403 -0.810631
67 1 3.35531 5.27048 1.96464 0.166303 -0.393215 -1.03256
124 1 1.65319 7.1555 1.49407 -1.01427 2.42104 -1.90581
962 2 1.56168 5.04417 3.36894 -1.55936 -1.42645 -5.77687
1025 2 3.33355 7.27411 3.19736 0.22091 -4.29379 -5.31972
125 1 3.43313 7.05039 -0.0735755 2.38266 -5.10187 -1.67472
63 1 0.168239 5.19749 1.58501 -2.09013 0.583654 -1.86449
1021 2 0.0424366 7.03943 3.20934 3.75008 -3.22883 -2.62301
71 3 7.06068 5.23521 1.50398 -0.107256 -1.28737 -0.973748
128 1 5.26996 7.02782 1.29097 1.91672 2.58268 8.01584
966 3 5.41728 5.46952 3.4585 3.33814 1.16035 -2.57905
1029 2 7.08132 7.14346 3.27643 5.04107 -0.327019 -0.192963
970 3 8.81299 5.33458 3.28567 4.25214 -6.37268 1.55598
66 2 5.37975 5.29751 -0.0571192 1.4496 -1.57442 -3.34601
131 1 7.09594 8.74291 1.47316 3.89778 -0.83484 7.0895
132 3 8.9265 7.13485 1.42109 -1.37639 -1.33908 -3.91608
75 3 10.684 5.18333 1.63133 -7.42695 -1.3956 0.404777
136 1 12.5816 6.95313 1.7008 -3.02565 3.43107 2.64518
974 1 12.2976 5.31908 3.47768 4.33948 -0.811968 -3.06076
1033 2 10.7552 7.16878 3.43207 -0.216105 2.90581 3.41161
1034 2 12.5023 8.72751 3.41453 -0.678086 1.81657 -0.230002
79 2 14.1573 4.97818 1.38387 1.61681 -6.77357 -5.01591
140 1 15.8755 7.08257 1.4594 -6.41331 -5.28038 -2.61962
978 3 16.1411 5.23707 3.2885 0.548752 -4.9642 1.67788
1037 2 14.2444 6.8879 3.50356 -0.484572 -1.49143 3.90306
78 1 15.8877 5.19593 -0.0883086 3.06297 -1.5428 2.2645
143 3 17.5836 8.71575 1.65962 1.02339 -2.38035 0.465069
1041 2 17.8598 6.83008 3.29341 0.800365 3.73122 -5.68324
83 2 17.9169 5.28171 1.51327 -5.24126 -4.30641 -0.507098
87 3 21.558 5.21553 1.70048 2.29425 -2.42566 1.16786
144 1 19.6282 6.9775 1.62441 -2.93124 -2.02586 3.73358
982 1 19.6376 5.12572 3.4757 -0.906048 3.3465 2.72037
1045 3 21.2572 7.04372 3.54625 1.03107 -1.60325 2.27191
1042 2 19.4097 8.59777 3.47382 -5.43446 2.62266 0.466094
147 3 21.3246 8.68114 1.82061 0.767495 0.910302 0.133376
142 1 19.772 8.82511 0.022804 0.268354 3.81016 -1.73562
91 1 25.119 5.2819 1.5887 -3.48834 4.83175 2.15676
148 3 23.1201 7.03432 1.78302 -0.331614 1.18324 -3.13872
986 3 23.0127 5.22498 3.48186 2.36558 -2.05459 -1.38482
1049 2 24.8496 6.84468 3.51776 -0.470831 -5.06408 2.45677
146 3 23.1857 8.77968 -0.011847 2.03157 -1.68509 -1.74086
152 3 26.7384 6.93583 1.48618 -2.9479 0.0796361 1.52396
1022 2 1.64212 8.99151 3.34906 -3.28296 6.04758 -1.08557
127 2 3.57946 9.07715 1.71875 2.54942 -2.31464 -3.38163
184 1 1.76421 10.6081 1.68666 3.65062 -1.33059 -5.93978
187 2 3.50572 12.3349 1.80219 0.821426 1.88897 7.16986
1082 1 1.57138 12.3304 3.24319 0.104068 2.47407 8.09998
1085 1 3.8426 10.5774 3.52936 -0.875988 -1.51872 -4.00636
182 3 1.54298 12.5422 -0.145611 -0.882945 -4.37311 -2.78775
185 2 3.30244 10.8202 -0.0217361 -6.20729 -0.983171 -5.75266
123 1 -0.147962 8.89513 1.42005 -3.85969 3.26793 5.06251
122 1 1.6912 8.89992 -0.123237 4.41532 2.38343 -3.73751
1030 1 8.71879 8.92673 3.44915 2.4217 5.04679 0.406808
1026 1 5.47008 8.8681 3.16756 2.469 0.718965 -0.0433913
188 2 5.39522 10.6554 1.59184 4.27801 -0.631977 2.64978
191 3 6.99427 12.62 1.34793 -4.61642 -0.558078 0.438616
1086 1 5.2564 12.693 3.26139 -4.97443 -4.02923 -1.52893
1089 2 7.08807 10.646 3.24887 3.84177 4.46005 0.9978
192 2 8.66249 10.6736 1.43183 0.626174 -2.64088 -4.19003
1090 1 8.88948 12.2753 3.44307 2.65012 -3.78619 0.348954
135 1 10.6633 9.00919 1.66885 3.41732 3.86448 0.583171
134 2 12.4412 8.91638 -0.126464 4.52445 -1.77446 -6.15314
195 1 10.7159 12.4828 1.25622 2.60355 -6.07867 3.95154
196 1 12.1694 10.6682 1.76105 1.08317 2.89713 5.23843
1093 2 10.4574 10.7078 3.48918 -2.20845 3.31122 -3.12093
1094 3 12.2093 12.4197 3.37378 2.15481 -0.624401 -0.115783
194 2 12.5144 12.3918 -0.0725747 -0.697571 2.7957 0.646621
139 1 14.1802 8.91154 1.92049 0.674828 5.62137 -5.08863
1038 2 15.8584 8.86657 3.3486 -6.93231 1.54582 -5.96312
199 1 14.2388 12.3426 1.59961 -0.259198 -1.32267 -1.57864
200 2 15.8278 10.7129 1.49077 5.82112 -0.160814 3.7944
1097 2 14.0491 10.967 3.48666 4.42609 -0.402346 3.11594
1098 3 15.9672 12.4234 3.46678 1.1709 0.473771 -1.04716
1101 1 17.7095 10.5795 3.26213 -0.298959 2.39531 3.53482
203 2 18.0066 12.34 1.4819 0.703714 -5.00553 -6.63814
204 3 19.5201 10.3441 1.72364 4.18698 -4.25581 0.730571
207 2 21.4261 12.3262 1.67109 0.944861 -1.81781 9.41484
1102 3 19.6318 12.3423 3.31416 -3.69848 -2.22522 -0.908226
1105 3 21.607 10.4971 3.46035 0.671315 -1.39989 -2.60042
151 1 24.9697 8.84621 1.84317 1.14311 3.74912 5.90776
1046 2 23.3222 8.87943 3.56156 4.25022 -4.94105 4.53054
208 1 23.3072 10.6186 1.75894 1.25993 -2.51329 -3.45627
211 1 24.9395 12.4913 1.47784 6.37974 1.31318 0.45374
1106 2 23.4069 12.3741 3.44173 1.31869 4.2503 1.53003
1109 1 24.8205 10.696 3.54762 1.2621 1.73583 -0.335557
1110 1 26.5938 12.2672 3.23084 -0.262107 -1.8422 8.4675
210 1 26.7684 12.4231 -0.106396 4.70772 -1.67844 -0.983243
244 2 1.58305 14.2913 1.74355 1.14703 6.36771 1.87562
247 2 3.39377 16.3525 1.67159 1.13545 0.277365 -0.256929
1142 3 1.51301 16.1372 3.58314 -2.442 -1.03404 4.29779
1145 1 3.30819 14.4201 3.37969 5.81765 -3.29547 -2.40142
242 1 1.65428 16.0529 -0.0371953 -0.637863 -0.398217 -8.43568
245 3 3.4167 14.3194 0.0574348 3.27185 4.80993 2.39959
248 2 5.33301 14.5963 1.56818 0.227572 -0.170247 -4.76388
251 1 7.12954 16.284 1.75404 -3.74784 4.18409 -1.29183
1146 1 5.16186 16.1032 3.56841 0.048548 2.77769 -1.40232
1149 2 7.04771 14.3351 3.46178 -3.68191 1.2899 1.18161
1150 1 8.71403 16.0532 3.56449 0.854282 -5.75661 -1.13425
250 3 8.7591 16.0276 -0.132453 -4.63769 -8.27189 2.26168
252 2 8.83173 14.2509 1.70479 -1.80338 2.16359 0.974622
255 1 10.4723 16.0333 1.67114 -1.51883 3.80553 -0.457843
256 2 12.44 14.3631 1.76518 2.34956 -2.90888 0.531074
1153 3 10.5705 14.3092 3.50317 2.88185 1.82143 0.290593
1154 1 12.383 15.9932 3.74031 -5.08926 4.59579 -1.6978
316 2 12.3999 17.6223 1.84723 1.89536 4.84355 -4.8037
254 3 12.6218 16.1073 -0.110789 3.11921 -4.5733 0.893769
259 1 14.0829 16.0416 1.91307 0.0557505 1.90703 0.0905699
260 1 16.023 14.3431 1.66537 -3.63493 -3.21625 -6.24939
1157 2 14.0499 14.2812 3.51083 -5.16053 -2.48908 7.23144
1158 2 16.118 16.1269 3.54937 -2.73398 -4.0224 -0.784878
263 2 17.6591 16.1389 1.71228 4.58012 5.74673 0.58916
317 2 14.3785 17.5901 0.0318919 -2.25998 1.00738 -1.7436
1161 3 17.6934 13.9883 3.25969 -1.58166 -0.243065 1.61569
320 3 15.9707 17.7462 1.59914 -1.04331 -1.40528 3.39912
261 1 17.9078 14.1983 -0.0150328 2.51732 -1.30743 -2.59302
264 1 19.7167 14.1196 1.50626 -0.643175 -5.09575 -1.70079
267 2 21.3687 16.0833 1.83164 0.554513 5.28881 -0.403364
1162 2 19.446 15.8878 3.33635 -0.71463 -3.81149 -1.43509
1165 1 21.1797 14.2452 3.48984 -3.44029 1.91059 3.37208
1221 1 17.8481 17.6954 3.53135 0.0640496 -2.44034 -1.86148
262 2 19.4989 15.8909 0.0189324 -2.5668 -2.00334 -3.0026
324 1 19.5353 17.7338 1.54772 -5.32029 2.57626 1.43633
265 1 21.3587 14.3857 -0.099863 -7.36641 -6.09998 -2.47563
268 2 23.1163 14.0129 1.58723 0.0851864 3.67332 0.830463
271 1 24.9557 15.9674 1.4892 2.71338 -0.876226 0.247868
1166 2 23.1954 16.0962 3.19377 -4.56854 -1.44792 1.30669
1169 3 24.9288 14.1714 3.38236 5.78499 1.46826 -4.04583
266 2 23.3869 16.0181 -0.0726745 -2.35695 2.05605 -2.27134
1170 3 26.7167 15.8807 3.40803 3.65016 0.783391 1.28862
328 3 23.0771 17.6945 1.49298 4.23474 1.56695 -0.405576
304 1 1.42316 17.8451 1.61581 -4.52421 -1.22909 -6.25174
1205 1 3.39033 17.8118 3.67949 -2.57859 -1.34967 0.0518155
307 2 3.31598 19.5821 1.86156 2.70576 2.42021 8.97424
364 1 1.67435 21.4163 1.53018 -1.70806 1.21988 5.68169
1202 3 1.40784 19.5666 3.37983 -1.49553 -2.48911 5.15716
1265 2 3.09348 21.5414 3.55877 0.638137 -5.35515 -4.25649
305 2 3.40602 18.0693 -0.112873 1.39488 2.28201 1.8462
302 1 1.48566 19.6172 -0.129508 -4.03183 -6.27784 5.50278
1209 1 7.1641 18.0966 3.58586 -5.39799 4.5333 -0.813875
309 2 7.02002 17.8713 -0.0478106 -0.236131 2.623 1.06494
308 1 5.29972 18.0352 1.83807 -1.05105 0.851044 4.6507
311 1 7.11409 19.7413 1.47632 0.0908624 3.98459 -2.07122
368 1 5.19506 21.3536 1.46221 3.30969 -2.5633 1.98088
1206 2 5.22897 19.5917 3.48469 0.388594 -0.435058 2.86259
1269 2 7.07501 21.4764 3.46215 2.20298 -2.54731 3.20878
1210 2 8.87854 19.6227 3.59345 1.37283 4.36726 1.69879
1213 1 10.7929 17.8072 3.50933 4.45335 -3.28384 -2.06647
312 2 8.83094 17.8191 1.72414 -0.609173 -4.21065 -4.19874
372 1 9.10344 21.1588 1.81443 -4.16997 -1.07452 -4.52058
315 2 10.884 19.4485 1.77475 1.10185 0.96585 -5.60003
376 3 12.3873 21.4344 1.9516 2.74512 -2.34339 -6.84602
1214 3 12.5034 19.5849 3.70358 0.50194 -2.3919 4.5231
1273 1 10.6616 21.2614 3.59333 0.453135 3.2509 -3.50943
373 3 10.823 21.156 -0.0130449 -2.4688 -5.49389 1.0208
314 3 12.5075 19.1585 0.043245 -2.62889 0.639075 -0.462333
1217 3 14.5319 17.9461 3.67499 -2.83038 1.09434 2.43531
319 3 14.0228 19.4 1.7704 6.86956 -3.84703 3.96847
380 3 15.7371 21.3625 1.57882 -0.653439 -5.20853 -1.78977
1218 3 16.1491 19.4145 3.3809 2.79395 -0.0535703 2.45747
1277 3 14.1251 21.4832 3.49906 1.44704 -2.00011 0.395672
318 3 15.8253 19.5492 -0.0697555 -1.65558 -2.06522 -4.30412
1281 2 17.7117 21.4953 3.37769 6.0299 -3.30739 -0.810243
377 3 14.0064 21.1634 -0.0506352 -2.38404 4.24969 3.37257
323 3 17.7582 19.6916 1.58183 -2.9577 4.31859 -4.79495
1225 3 21.4101 17.8627 3.55681 -3.60524 -4.74767 -1.93279
327 2 21.258 19.4698 1.70285 -10.7694 -1.73024 1.2688
384 3 19.6482 21.4107 1.7596 -2.24591 0.94842 -1.97238
1222 3 19.3599 19.5733 3.38062 -2.26469 6.24763 0.486935
1285 3 21.3966 21.4552 3.50651 4.20278 0.0123907 2.94134
385 3 21.3871 21.2791 -0.118615 -1.43589 -1.7542 -5.54708
329 2 25.0689 17.8913 0.0372502 2.79489 -6.27501 0.706683
1229 3 24.7435 17.951 3.31659 -0.12005 -2.61135 -2.57479
331 2 24.9357 19.8619 1.77128 0.758933 0.186447 4.35234
388 1 22.8923 21.6092 1.63313 -1.78824 1.86246 0.0175839
1226 1 22.996 19.6403 3.31936 2.79882 -0.0716825 -3.19054
1289 1 24.7486 21.4256 3.35656 -3.96813 2.12288 -1.13779
389 1 25.0867 21.5106 -0.11769 4.77731 1.74736 1.06782
326 3 23.1207 19.7239 0.068225 -6.26898 0.335224 2.68929
1230 1 26.6696 19.7573 3.65009 -1.382 -2.8718 -4.13055
332 3 26.7459 17.8234 1.52256 -1.37521 -1.01031 -0.253463
367 2 3.37098 23.1134 1.49343 -1.44332 -2.38402 0.150992
424 1 1.57799 25.0853 1.57773 2.21493 0.546759 1.33338
1262 1 1.56549 23.252 3.26649 -3.09813 0.119918 3.05006
1325 1 3.42849 24.8045 3.40008 1.83375 -2.44915 -2.14402
427 2 3.40495 26.3012 1.49096 4.24298 -2.32485 2.70149
1321 3 -0.0702002 25.1876 3.19436 -0.272107 0.85919 1.99279
371 1 7.05825 22.9056 1.54473 -1.10433 -0.933928 -1.31572
428 1 5.20614 24.8033 1.6128 0.278141 0.143379 -1.97081
1266 2 5.34952 23.0365 3.38659 5.37004 0.719284 -0.100101
1329 1 6.95051 24.8366 3.16744 -3.05674 -0.000790341 -0.534839
431 2 6.80894 26.6337 1.53697 -3.11869 1.80657 -1.01352
429 2 7.20447 24.9247 -0.135726 -1.29574 -1.48729 -2.24581
1326 3 5.32334 26.6634 3.3373 7.33571 -1.3041 3.43943
1270 2 8.82067 23.0931 3.47403 -0.0564391 4.8197 0.511189
432 1 8.87453 25.0068 1.60037 -1.87797 -2.57585 -0.516438
375 3 10.5679 23.1471 1.75157 0.479475 -1.57804 5.40187
436 3 12.4586 24.8377 1.62554 1.87718 -4.68782 0.734233
1274 2 12.371 23.4397 3.47767 0.127165 3.65187 -1.23878
1333 3 10.7029 25.2616 3.35439 -1.37347 -0.0862979 -0.229763
374 3 12.5124 23.0885 -0.0288208 -2.07697 1.36415 1.13125
1330 2 8.87354 26.6515 3.32511 -3.31637 -1.74376 -2.81065
433 2 10.6498 24.9459 -0.0673157 1.6644 3.27514 0.0504011
434 3 12.3087 26.6408 -0.121 1.09456 2.24632 1.24773
379 3 14.2007 23.0688 1.78052 -9.15818 -7.65742 2.63711
440 2 15.9769 25.0427 1.74475 0.226374 6.19227 2.77654
1278 3 16.1077 23.2447 3.30147 1.76247 -2.09807 2.64377
1337 1 14.2875 24.9315 3.46449 -3.2534 -4.49611 -0.46111
1341 3 17.7344 25.1764 3.55028 3.82265 4.18057 0.297072
378 3 15.9891 23.2101 -0.0597684 1.00927 -3.84077 -0.871444
383 3 17.7971 22.9376 1.51786 -1.22272 -2.91016 1.36711
387 2 21.2326 23.3137 1.6667 -0.785477 0.481489 2.99174
444 1 19.553 25.0538 1.60127 6.19324 -4.68889 0.663432
1282 3 19.4941 23.3789 3.51013 -1.63648 6.55357 -0.888825
1345 1 21.449 24.9868 3.11338 -0.169358 -1.32809 -1.82182
447 1 21.2788 26.6626 1.56915 -0.585877 -4.27439 -2.01239
391 2 24.9452 23.132 1.65203 2.73246 1.82021 0.207151
448 2 23.3235 24.7975 1.60041 8.1064 0.744211 2.53754
1286 1 22.994 23.3842 3.397 3.61886 -5.65753 4.13822
1349 3 24.8274 25.0149 3.45877 1.28905 2.29332 3.5231
452 1 26.6048 24.8603 1.77077 3.19664 -4.51305 3.29719
1290 2 26.6704 22.7587 3.54579 4.02699 -0.190163 3.97998
449 1 25.1383 24.7009 -0.0629181 -4.54868 0.671057 -2.42409
1346 1 23.0863 26.7125 3.41962 -1.84778 -0.378232 -1.85037
446 2 23.2896 26.6819 -0.0201129 4.3155 -6.45601 4.34486
1801 3 0.00156123 -0.122535 6.96734 -2.74112 2.60108 1.26296
1804 3 1.61832 -0.107015 8.81397 -1.45714 -1.04261 2.09527
907 3 3.48014 1.74222 5.50247 -0.658089 -1.52398 -1.5235
964 3 1.61961 3.53683 5.13053 0.918712 -1.58895 -2.51434
1802 3 1.57388 1.6491 6.87105 -0.573493 -2.46541 -0.151274
1865 3 3.36273 3.55056 6.89331 -5.1569 7.20555 -4.07942
1864 3 1.67748 3.38996 8.48781 1.69914 1.64241 3.28349
1807 3 3.51677 1.59181 8.67909 5.06477 -1.63019 1.00066
1809 2 7.06547 -0.116199 7.00775 1.84341 3.01647 -6.19173
908 1 5.2402 -0.143051 5.26165 -2.93793 -0.753196 -1.52077
911 2 7.08463 1.66479 5.14492 -0.126991 4.84817 -3.72306
968 3 5.28421 3.3868 5.2186 1.54556 -3.70508 0.660002
1806 3 5.2379 1.60238 7.09118 -4.13583 2.99999 3.34295
1869 3 7.19154 3.16598 6.79802 0.348328 4.24354 0.961494
1868 3 5.16878 3.52526 8.82185 -0.704697 -1.04666 4.00805
912 1 8.79705 -0.0832057 5.20225 2.33414 -3.88979 1.32511
1812 2 8.7299 -0.0903774 8.7993 -3.68216 -1.36267 -1.29735
916 3 12.4808 -0.072186 5.42516 -0.67336 0.951425 -2.46155
972 3 8.98472 3.33692 5.15812 -1.97984 -1.82982 5.03201
1810 3 9.12598 1.60852 6.90456 -5.56472 1.1901 5.23019
915 2 10.748 1.83593 5.31643 1.82941 1.19823 1.50155
976 2 12.4246 3.52344 5.25674 3.85559 0.748254 -1.16456
1814 3 12.5487 1.59622 7.26139 0.467813 -0.0258816 3.73254
1873 1 10.7198 3.50092 7.12282 4.34628 -2.18031 -0.146533
919 1 14.2628 1.62876 5.43558 1.51304 0.516394 -4.61786
980 2 15.8599 3.28494 5.06987 1.73377 8.66325 -0.346246
1818 2 15.9574 1.48779 7.04547 3.33333 -4.14659 -1.20989
1877 1 14.1545 3.3335 7.18055 -0.0584664 -5.8981 -2.24888
1880 2 15.8732 3.51091 8.63199 2.92457 1.04409 -2.75819
1881 1 17.542 3.23751 6.85909 -0.764653 0.683999 1.50733
923 1 17.2624 1.55961 5.03661 6.51146 2.64479 -4.68365
1819 3 14.4571 1.54658 8.80228 5.16453 2.95333 1.15234
1823 3 17.8828 1.50303 8.58669 -0.0656573 -1.07217 1.4418
927 3 21.2922 1.79121 5.2736 -0.8645 -1.45394 2.38809
984 2 19.5721 3.61205 5.24584 -0.47109 -0.377928 0.288782
1822 3 19.6272 1.58944 7.04918 -3.13445 -1.63646 4.77212
1885 1 21.2348 3.54392 7.08747 -3.69732 6.25758 -0.0884097
1884 3 19.4047 3.34652 8.67721 2.78324 -1.74106 6.59752
924 2 19.4908 -0.00709544 4.92417 4.02217 -3.92199 3.57127
1827 3 21.4484 1.59387 8.57321 1.5248 1.47605 1.98673
932 2 26.5334 -0.0814291 5.39271 4.50179 1.68369 -2.34735
931 1 25.0286 1.6074 5.14521 -0.0252068 -2.87276 3.48609
988 3 23.0468 3.41375 5.12452 -3.26873 2.49503 -0.189209
1826 2 22.9953 1.74527 6.94449 -1.10735 -2.42588 -3.15855
1889 3 24.9605 3.35752 6.93969 2.55301 -5.61033 -0.243475
1831 1 24.8678 1.44831 8.64488 -1.5566 -2.11814 0.614348
1888 3 23.2091 3.41921 8.62167 -2.65911 1.52177 -0.071346
1892 2 26.6182 3.30494 8.77931 -0.44758 -0.582368 -1.13529
992 3 26.6283 3.50383 5.25874 0.905723 -1.88472 2.66755
967 3 3.48525 5.38024 4.86645 2.904 3.63575 1.19595
1024 1 1.59483 7.10383 5.15094 3.64771 -5.65787 -1.17796
1862 3 1.56802 5.34727 6.88279 2.12677 -4.3966 -0.935725
1925 1 3.42976 7.11865 6.85015 -1.98332 -5.61041 -4.43258
1867 2 3.63229 5.31703 8.7234 1.27008 -2.51256 3.18667
1924 3 1.54765 7.20221 8.6735 -1.05097 -3.45896 -2.1389
1027 2 3.68198 8.53237 4.92363 -0.279225 0.178924 3.70159
1922 2 1.43533 8.76783 6.6394 -0.0421835 0.786526 -0.419578
971 2 7.07255 5.20319 5.1696 -0.546119 1.95495 4.80264
1028 1 5.42021 7.10292 5.36175 2.29297 0.420543 1.87467
1866 3 5.14708 5.32345 6.8593 1.23389 3.75531 -0.351045
1929 2 7.00276 6.90473 7.2335 -1.16726 6.85294 -0.201113
1870 1 8.75958 5.21386 7.15884 -0.599603 -1.65291 -4.11072
1928 1 4.89641 7.22395 8.73192 1.6055 -1.26853 3.22063
1032 1 8.65882 7.15021 5.17529 -2.35054 1.3357 4.4815
1932 1 8.58268 6.91146 8.78299 0.608713 3.8732 1.11924
975 2 10.4014 5.33554 5.44159 -5.0147 3.46443 -3.28236
1036 1 12.1346 6.94488 5.22047 -0.189833 2.51701 -2.17751
1874 1 12.3459 5.23521 7.10021 -3.78599 -2.57554 2.28634
1933 2 10.5935 7.17875 6.88915 -2.47589 2.13051 -2.16236
1936 3 12.3079 7.22014 8.80012 3.09121 -0.189059 3.31082
1875 2 10.6914 5.23263 8.8172 0.167017 12.0039 1.87213
979 2 14.2448 5.11162 5.24566 2.2781 -1.5803 1.54294
1040 1 15.9853 7.09016 5.02257 2.48111 -0.792734 -2.95119
1878 1 16.0494 5.0857 6.7575 -5.14548 1.81974 1.09081
1937 2 14.2274 7.03276 6.6958 2.27542 -1.25256 -2.17748
1941 2 17.6743 7.15556 7.01214 -0.177608 0.973215 0.221695
1940 1 16.022 7.08328 8.69236 -4.26795 -1.31433 -2.05224
1883 2 17.5201 5.09419 8.482 -3.02277 2.73102 1.52369
1939 1 14.2701 8.74767 8.8073 1.69434 -2.90552 2.02122
983 1 17.6948 5.31343 5.20424 -1.75846 1.77817 1.23965
1039 1 13.9505 8.79773 5.1462 3.41603 -1.22477 2.71247
1879 2 14.259 5.41567 8.69657 2.06548 1.2454 -7.82871
1043 3 17.7357 8.81931 5.06119 0.342288 0.214862 -1.33936
987 3 21.1488 5.13462 5.30062 2.17477 0.397456 -2.16157
1044 2 19.4472 7.01278 5.32304 5.05354 1.50046 5.1094
1882 3 19.3712 5.23952 7.06513 -1.46379 1.73011 2.50031
1945 3 21.3436 7.21869 6.98765 5.60471 1.68841 -0.548197
1942 3 19.4486 8.76038 7.0092 -0.529289 3.37032 -1.95401
1887 2 21.3264 5.15973 8.79827 2.42614 -4.78832 -4.03827
991 3 24.8386 4.98375 5.24041 3.95899 0.00455257 6.17625
1048 3 23.152 7.04578 5.32139 -3.01766 -4.50041 0.785999
1886 3 23.177 5.24017 6.94972 4.64404 -4.6203 3.79118
1949 2 25.0183 7.10009 7.11028 -5.76999 -0.497258 1.52175
1891 1 24.9917 5.12854 8.73982 0.84877 -3.07749 0.546118
1948 1 23.2474 6.94909 8.72361 3.03005 -5.10966 0.415197
1052 1 26.7003 6.97305 5.13563 2.21363 0.780817 1.93466
1927 1 3.31418 8.88938 8.65975 3.59652 -0.441502 1.09584
1084 2 1.69456 10.7416 4.84526 1.32818 1.06417 -0.100459
1087 2 3.27687 12.648 4.93863 1.93338 2.28505 1.88055
1982 3 1.70778 12.5297 6.61324 -8.14949 -6.98708 -1.91576
1985 3 3.4188 10.6176 6.66775 8.36609 -2.38142 -5.54805
1984 2 1.68433 10.4806 8.56022 6.00209 -0.727764 0.389857
1987 3 3.41713 12.4088 8.80499 0.632289 -2.18897 2.31588
1083 2 -0.129918 12.677 5.1055 0.949786 -4.56233 -5.16536
1926 2 5.35452 9.11769 7.11123 -6.68103 0.118153 1.01185
1031 2 6.99575 8.90979 5.22968 -0.971687 -2.77529 -1.72514
1088 1 5.45302 10.6607 5.15134 -1.90691 -6.14739 -4.32808
1091 3 6.92191 12.6417 5.06599 -0.0425864 -3.86164 -1.65126
1986 3 5.11382 12.3703 6.98337 3.00399 0.444753 -0.452276
1989 1 7.0872 10.797 6.86035 -1.82132 -3.10291 2.06648
1092 1 8.78916 10.6044 5.08642 0.862702 -4.03095 0.361059
1992 2 8.74819 10.6705 8.76845 -0.71831 2.15477 1.74679
1988 2 5.09259 10.4791 8.77056 -5.81457 0.207121 -3.09928
1990 2 8.89111 12.3418 6.87861 2.91787 1.49638 -3.74619
1930 2 8.90569 8.92228 7.08103 -3.9521 2.47534 5.28389
1934 3 12.2549 8.97412 7.08827 1.12881 3.64214 1.8507
1035 1 10.5543 8.94557 5.07029 -2.99704 0.0446142 -0.681203
1095 2 10.4252 12.4388 5.12604 -2.92334 1.08356 -5.21183
1096 3 12.3651 10.5961 5.24591 -6.01034 -6.00904 0.387156
1993 1 10.4338 10.7225 7.08667 -0.518795 -2.03138 -1.45136
1994 1 12.384 12.1338 7.04966 0.302072 6.43915 -0.27486
1938 2 15.8966 8.84236 7.06212 -5.17197 0.50249 -2.15759
1099 1 14.0199 12.3668 5.19714 0.372758 0.267628 -0.794228
1100 3 15.9226 10.5058 5.0491 -0.671679 -1.3458 0.532995
1997 3 14.1225 10.3754 7.16727 6.17067 -3.19761 -7.00006
1998 3 15.85 12.2234 7.1079 -1.95131 -3.19296 1.00389
2001 1 17.6045 10.6517 6.9807 1.23857 -2.96496 -0.780679
1103 3 17.7882 12.2989 5.17299 -1.82303 -4.83246 -6.48946
2003 3 17.9072 12.3903 8.74152 4.07257 -1.18474 3.72872
1047 3 21.3621 8.84462 5.13202 1.31332 -3.9379 2.56418
1947 2 21.5059 8.91576 8.63447 2.98363 -2.68199 -0.253251
1104 2 19.5321 10.7024 5.18427 -0.0864789 4.03459 5.64661
1107 1 21.2426 12.3675 5.1888 0.400429 -3.51617 2.34762
2002 3 19.5999 12.2856 6.99808 -3.8325 -2.24967 3.43254
2005 1 21.3092 10.4689 6.98972 -3.0678 -9.56086 3.13585
2007 2 21.2373 12.36 8.74209 1.23 -6.34237 -4.92521
2012 1 26.5957 10.6038 8.80942 -4.0358 5.58887 4.92501
1950 1 26.7173 8.95728 6.95839 3.3289 0.305392 1.89149
1951 2 24.7667 8.87941 8.71777 -3.25617 0.850823 5.57499
1051 1 25.0349 8.97861 5.25529 -3.07895 -6.0616 -2.68123
1946 1 23.1421 9.07349 6.87074 1.94172 -0.32029 5.28118
1108 2 23.2157 10.7333 5.24434 1.60002 -1.73713 4.94213
1111 1 24.8705 12.449 5.25963 -2.97846 1.30395 3.77753
2006 1 23.1671 12.4846 7.08444 -1.28455 2.64936 -0.0360678
2009 2 24.8041 10.6401 7.02168 0.300708 -2.8991 4.24333
2010 1 26.7286 12.4935 7.19202 0.663963 -0.394562 -0.414387
2008 1 22.9288 10.6083 8.67357 -1.84495 -0.995085 -5.58954
1112 2 26.6741 10.7026 5.33254 -3.88078 -1.79926 -0.907457
1144 1 1.5298 14.4135 5.14138 4.73907 -1.22223 1.45392
1147 3 3.54697 16.136 5.45068 -0.779705 1.43575 4.60428
2042 2 1.5259 15.9132 6.98763 2.70494 -1.14175 1.18717
2045 3 3.38671 14.3247 7.04325 4.01246 -4.46251 1.2564
1148 3 5.17997 14.1783 5.4104 -0.643139 -0.553135 -4.90964
1151 2 6.75417 15.9772 5.17467 -5.81734 4.53878 -1.36004
2046 3 5.25618 15.9713 7.2205 -0.498431 6.73171 3.74497
2049 3 6.98542 14.235 7.10507 -0.131024 1.82336 0.290437
2109 1 6.89014 17.7906 7.15536 -5.2638 3.93343 0.0908438
1152 1 8.79966 14.2446 5.11366 3.80924 -1.75558 4.73361
2051 2 7.0612 16.0182 8.75045 -5.02331 1.25084 3.37745
1212 2 8.59121 17.7535 5.45181 -4.56635 0.753762 4.12146
2050 1 8.6905 15.8214 7.03265 -4.36282 4.90555 -0.0376651
2052 2 8.68609 13.9078 8.76458 -0.0964666 -1.95818 -1.95368
1155 2 10.4701 16.2138 5.23233 3.32399 -1.60805 -3.46712
1156 1 12.3517 14.3418 5.41709 3.53996 -1.4202 -0.950065
2053 3 10.5452 14.1886 7.11451 6.23789 -3.67504 0.0100911
2054 3 12.3267 16.0472 7.18988 4.80971 1.09505 -0.158678
2055 2 10.4294 15.812 8.76752 3.13347 0.901473 4.17814
1216 2 12.3814 17.7035 5.47091 -0.964623 -5.76343 4.88289
1159 3 14.3035 16.1197 5.32545 0.657474 2.99328 -0.98892
1160 3 15.9576 14.0489 5.23914 -0.682107 -2.42026 0.0862562
2057 3 14.1382 13.932 7.09525 -4.12133 -5.75368 -2.80635
2058 3 15.9348 15.8377 7.07633 -0.193116 0.484745 5.50452
1163 3 17.7783 15.6329 5.33437 5.65839 0.202784 5.41983
2120 3 15.9695 17.6832 8.82821 -3.00935 2.76001 6.34882
2117 1 13.9884 17.772 6.98918 0.12673 0.1563 4.03383
1220 3 16.1456 17.7743 5.47846 3.82588 -0.927703 -0.247794
2061 2 17.7765 14.0897 7.04275 -3.67343 5.1342 -5.76637
1164 2 19.5566 14.0922 5.08658 1.46746 -0.496451 -5.03389
1167 1 21.3866 15.9465 5.14048 -1.44968 2.75877 -6.77012
2062 1 19.7363 15.8725 6.79451 3.90181 -0.514013 -1.08135
2065 2 21.4364 14.3142 6.73261 -4.39304 6.45939 -0.223227
2067 1 21.3324 15.8659 8.70361 3.20803 1.46506 -2.93607
2064 1 19.602 14.3173 8.57175 0.344654 0.381999 -2.72948
2124 2 19.5523 17.6804 8.68515 -2.18245 -1.51075 -1.22558
2121 2 17.882 17.7077 6.97885 -3.89407 -6.21057 0.537551
1168 3 23.23 14.181 4.98495 3.5426 0.286743 -1.80935
1171 3 24.8287 15.8833 5.23877 -0.84598 3.73235 -3.0088
2066 2 23.095 15.9171 7.07121 -3.9212 0.494711 -2.82704
2069 3 24.9156 14.1059 6.90261 3.14632 -5.0733 1.54092
2128 1 23.1826 17.7238 8.72973 5.80315 2.21549 5.13355
2129 1 24.8903 17.7184 7.0526 -0.401858 -0.60731 4.35107
2068 3 23.3698 14.2879 8.6691 -5.14525 6.70733 -3.75078
2132 2 26.7285 17.709 8.65343 -2.6274 -1.13422 0.865937
1228 3 23.2763 17.7389 5.16448 -1.70242 -3.76128 1.81197
1232 3 26.7024 17.762 5.12361 -4.63126 -6.42739 0.470823
1204 2 1.49001 17.8419 5.38532 5.47499 4.22977 -0.830854
2105 1 3.38238 17.8308 7.06874 1.45273 0.00143301 3.11483
1207 1 3.21804 19.6793 5.28394 -2.88634 2.50224 -5.79613
1264 3 1.51614 21.5003 5.31916 1.95814 6.01331 4.5387
2102 2 1.4788 19.5811 7.09366 -4.81662 4.80106 -3.5062
2165 1 3.39374 21.4882 7.01175 -4.54863 -5.62302 -4.19603
2164 3 1.70226 21.5029 8.56961 1.76593 1.14554 -4.2887
2107 3 3.23533 19.5879 8.70355 -3.65325 2.27766 -3.74382
1208 2 5.27369 17.8344 5.30498 3.53007 2.45561 0.735677
1211 1 7.00659 19.6756 5.47317 -1.96317 -1.78657 4.13833
1268 1 5.16811 21.4916 4.98912 -3.95367 1.02409 -2.48235
2106 2 4.9835 19.863 6.86359 -5.07346 -1.15896 -3.48329
2169 2 6.79609 21.4215 7.01124 -2.62053 -1.67947 0.0645918
2110 2 8.70787 19.5898 7.0924 1.78739 5.83688 -1.70458
2172 1 8.66731 21.2235 8.78188 -4.95342 2.16578 3.32918
2111 1 6.92567 19.4895 8.75484 7.58164 -0.00289557 4.89891
1272 1 8.89428 21.3917 5.43978 0.321022 1.27791 -3.36108
2113 1 10.4458 17.8439 7.30591 -2.01051 -8.30237 1.99868
1215 1 10.4529 19.4607 5.35703 -0.379635 -2.67235 0.974753
1276 2 12.439 21.5233 5.33268 -5.9027 5.74341 -1.6469
2114 2 12.3192 19.6592 7.05859 5.50673 8.33166 -2.78041
2173 2 10.5051 21.2853 7.13059 -4.59023 -2.65075 4.14617
1219 1 14.2673 19.6433 5.50429 -4.25993 3.85249 -0.148943
1280 3 15.8375 21.3779 5.28643 2.84077 -1.18125 -0.735278
2118 2 16.0178 19.5472 7.03129 2.77196 1.17266 3.58814
2177 3 14.0714 21.5124 7.08053 -1.3657 3.21499 -1.86886
2123 1 17.6313 19.7367 8.66031 0.801348 -6.37038 2.59455
2119 3 14.4379 19.6459 8.82839 1.7336 4.15445 3.25701
1223 3 17.6457 19.7888 5.3349 0.165906 -1.92724 2.57571
2181 2 17.7936 21.6379 7.03158 -1.04453 1.82696 -0.316604
1224 2 19.6158 17.8733 5.24845 2.55718 4.09541 2.04528
2125 2 21.4176 17.9662 7.00118 -3.1398 4.38522 -1.77274
1227 1 21.5301 19.6803 5.14716 -1.12896 0.826765 3.38173
1284 1 19.6242 21.5306 5.18892 -0.456552 0.19812 5.67427
2122 1 19.5535 19.6678 6.97521 -4.37564 2.11837 2.92633
2185 2 21.4376 21.4017 7.13165 -6.93219 -3.13127 -4.78693
2184 1 19.4414 21.399 8.46896 3.36779 3.70875 0.202299
1231 2 24.8088 19.8653 5.09158 -4.04433 2.17561 -2.53429
1288 2 23.152 21.4292 5.28699 1.49125 -3.58404 -2.03018
2126 1 23.292 19.5842 6.98412 3.75759 -0.617077 -2.01647
2189 1 24.9302 21.5383 7.04994 -4.76803 0.156569 -1.09142
2130 3 26.7226 19.3263 6.87037 -0.519311 3.20813 5.81363
2131 2 24.9946 19.7311 8.76635 -8.77776 1.61844 -2.93064
2223 2 0.117257 26.7274 8.68744 4.16527 4.36463 3.9888
1267 3 3.24921 23.2518 5.08655 -1.99176 -3.43606 -8.15587
1324 2 1.75424 24.9991 5.44573 -5.37813 2.25849 -2.20016
2162 3 1.66789 23.3244 6.91974 4.2982 2.89402 0.129582
2225 3 3.63477 24.8298 6.83659 -2.97433 -0.0326584 -3.99302
1327 1 3.41877 26.5714 5.19922 0.0225126 -0.490545 0.817673
2163 2 -0.0797383 23.7005 8.59967 -0.950195 -4.582 -5.50723
2167 3 3.4834 23.0831 8.81161 5.15168 0.624375 -4.675
1271 1 7.0783 23.0914 5.12468 -4.45077 4.71099 -6.135
1328 2 5.37914 24.8363 5.02473 4.36683 -4.58759 4.46846
2166 1 5.26495 23.1739 6.83035 2.70173 -6.05851 -3.41356
2229 2 6.91469 24.6483 7.12215 4.39388 0.102145 1.31098
2226 3 5.40804 26.6257 7.16515 -3.33396 3.91334 -4.98724
1331 2 7.09884 26.6355 5.07098 -2.88105 -1.39836 4.40959
2232 1 8.63307 25.0098 8.75396 0.91694 -3.08109 3.47756
1332 1 8.64977 24.9493 5.14653 -1.52556 1.19029 6.4075
2228 1 5.31075 24.8688 8.75046 -0.141382 -1.82123 0.83087
2230 1 8.74936 26.5862 7.05574 -5.40661 -3.42181 -0.86748
2170 1 8.84539 23.2421 7.17596 -7.75545 5.48054 -0.50277
1275 3 10.6076 23.2707 5.34146 -0.490211 0.984153 0.354348
1336 2 12.4567 25.2825 5.49311 0.492309 3.73532 5.57295
2174 1 12.3138 23.2586 7.17324 6.83156 -1.2758 2.12206