ITEM: TIMESTEP
34200
ITEM: NUMBER OF ATOMS
13500
ITEM: BOX BOUNDS pp pp pp
-1.7909045521570732e-01 5.3699090455210715e+01
-1.7909045521570732e-01 5.3699090455210715e+01
-1.7909045521570732e-01 5.3699090455210715e+01
ITEM: ATOMS id type x y z vx vy vz
7 3 3.31463 1.63051 1.72533 -2.36551 1.8614 3.40934
64 3 1.52557 3.37213 1.65197 1.54088 -0.878919 -3.3362
902 2 1.83956 1.59609 3.49374 5.59867 -2.6398 4.88939
965 2 3.60225 3.60032 3.53111 -0.230358 2.33315 3.68212
5 2 3.70373 0.023941 -0.0887532 -1.66707 -4.71086 -7.03447
65 3 3.40282 3.44097 -0.0110229 -3.47585 6.1793 -0.221715
3 2 0.028668 1.63421 1.78102 -2.43857 -6.33583 -1.38558
2 3 1.75513 1.64958 -0.112108 -2.58448 -2.4095 9.52568
11 2 7.01496 1.68919 1.80214 -1.15838 1.32041 -1.49488
68 2 5.2529 3.4599 1.74513 -1.29802 -1.13862 -0.644864
906 3 5.2153 1.34398 3.71681 3.31282 -6.00588 1.18264
969 3 7.13716 3.55596 3.50758 -0.272915 -4.58066 0.6971
69 3 7.12586 3.53311 -0.0531497 -2.72422 0.0901146 -0.586685
72 3 8.72807 3.30664 1.57009 0.259904 1.94734 6.28916
909 2 6.98785 -0.13458 3.35363 0.465538 0.298758 -1.50073
6 3 5.32807 1.68383 -0.165784 -1.12327 3.88065 1.39718
910 3 8.73938 1.58711 3.63546 -5.12756 3.02067 -0.297521
15 2 10.6076 1.45811 1.70233 2.79964 2.39923 -4.1585
76 2 12.499 3.283 1.37369 -3.60593 -2.72208 6.1304
914 1 12.293 1.50934 3.47856 3.04278 -0.880493 -2.99771
973 3 10.755 3.31 3.29087 -3.4612 2.97503 2.93957
14 2 12.406 1.55348 -0.085295 -0.297991 3.27047 2.15802
73 1 10.5159 3.31156 -0.123786 -1.71935 -2.24974 1.48888
19 3 14.0717 1.57712 1.6925 3.43477 5.90074 -0.250207
80 2 15.8802 3.46721 1.82655 -1.87601 -1.24806 -0.677858
918 1 15.8951 1.65725 3.41205 3.78729 -1.51686 -4.51672
977 1 14.168 3.24348 3.67624 5.27719 -1.12631 -4.23786
981 2 17.6784 3.54036 3.48733 -0.515592 0.0996136 4.34523
23 1 17.6086 1.50088 1.85809 -4.66169 -2.68348 0.688509
18 2 16.0907 1.54117 0.0780601 -4.86201 -0.0461294 9.47177
81 3 17.6842 3.30556 -0.0546074 -1.00785 -1.65307 4.89991
27 2 21.2221 1.60656 1.86034 5.77959 -5.43989 2.03516
84 3 19.5025 3.40196 1.83968 0.462938 2.83418 2.75965
922 3 19.377 1.47393 3.62648 3.4937 -1.70212 3.39302
985 1 21.5416 3.27371 3.56353 -2.35647 -3.5607 -2.71057
22 2 19.3878 1.57129 0.057559 3.59606 -3.57102 -0.450209
25 1 21.3999 -0.119671 0.0977518 3.40711 -1.14537 1.41644
85 1 21.4382 3.64837 -0.169071 2.22503 -0.923423 2.21153
92 2 26.6997 3.33658 1.84133 3.0379 0.256536 2.04008
31 3 24.9378 1.43611 1.86772 -1.92362 2.34574 -5.61012
88 3 23.1512 3.04453 1.62022 -5.16068 -4.58935 2.10858
926 2 23.2285 1.41051 3.47111 -5.24788 4.54646 -2.08916
989 3 24.8241 3.33136 3.53427 -2.3627 1.93754 -3.03193
26 2 23.0652 1.45861 -0.0923319 -4.11891 0.11906 -2.44423
89 3 24.8623 3.47969 -0.00684151 -1.66412 -0.116781 0.736727
30 3 26.4822 1.52682 -0.0163319 1.10233 -0.571256 3.57401
930 3 26.7366 1.50993 3.60921 0.737444 -6.44952 -0.216144
28 1 23.2053 -0.145276 1.62445 -0.652606 3.4689 1.18993
67 3 3.50886 5.3927 1.78144 -1.66083 1.03692 -4.90796
124 3 1.56234 7.00061 1.49754 -4.22244 -7.02984 -4.13069
962 3 1.42209 5.5953 3.6082 1.34275 -1.54811 -2.0777
1025 2 3.63274 7.28502 3.34587 -0.993995 -0.0590446 0.919533
125 3 3.47847 7.25292 -0.0559069 -1.52677 4.62808 -3.02573
62 3 1.72147 5.11987 -0.0247016 0.694172 12.5289 -2.58212
63 2 -0.0763727 5.29961 1.7417 -1.73484 3.15654 -3.02839
127 2 3.88127 8.78319 1.61451 6.82159 0.439163 -3.34741
71 1 7.04976 5.2067 1.50091 -5.4699 -3.85731 -1.29063
128 1 5.40526 7.03259 1.69145 4.18735 5.80472 0.577355
966 1 5.27703 5.32487 3.42414 3.75171 3.65656 -0.95476
1029 2 7.12086 7.08432 3.60258 3.31257 3.53838 0.116133
129 1 7.20242 7.08193 -0.0591279 -0.295813 -2.83098 0.958404
66 2 5.26109 5.3024 0.0551077 -0.266319 -0.764241 -1.72974
1026 1 5.45904 8.80298 3.59278 -1.21933 8.82328 7.80893
126 2 5.36338 8.71207 -0.0254344 -2.27727 4.05328 9.50449
132 2 8.92579 7.05771 1.69923 6.81611 0.246568 -0.957084
970 3 8.84307 5.18547 3.69294 -1.82429 -3.13942 1.21559
75 1 10.5052 5.17997 1.70438 -1.09116 4.55008 3.53547
136 1 12.2561 6.81671 1.76514 4.09012 0.711663 -0.887894
974 2 12.4335 5.11336 3.50067 -3.33201 -2.17836 -0.480777
1033 1 10.6078 6.57932 3.53897 -2.63054 8.41538 -0.715613
70 2 9.10586 5.49542 -0.031121 3.00679 -3.17868 -3.01112
1034 1 12.3531 8.62339 3.27643 -1.32541 0.357141 3.48929
79 1 14.1281 5.07135 1.63597 -2.87655 5.44791 5.98322
140 3 15.9881 6.82371 1.46979 1.90348 -5.56363 1.10445
978 2 15.9569 5.20972 3.33518 -3.10969 2.96311 -1.64898
1037 2 14.0972 6.82734 3.44803 1.62016 4.46769 0.220646
1038 1 16.1364 8.71515 3.35383 -1.72416 3.76429 4.52043
137 1 14.0704 7.01388 0.131758 1.44129 1.97815 -4.29729
78 2 16.0901 5.01028 -0.0701631 -0.00767548 2.36966 -1.08116
143 2 17.6064 8.78369 1.68458 -3.92055 -0.179229 -7.0967
139 2 14.3536 8.75811 1.70031 -8.09344 0.309423 5.51187
83 1 17.9221 5.19777 1.7238 -3.92754 7.47554 4.27735
1041 1 17.8209 6.98179 3.56539 -0.215914 2.38581 -3.27879
87 1 21.4987 5.28896 1.75927 -0.81605 -2.49481 -2.92727
144 3 19.6851 6.89335 1.54384 -0.837495 1.74996 3.86011
982 2 19.6658 4.98226 3.39361 -4.05263 9.84032 4.57286
1045 3 21.3456 7.05695 3.24863 1.71928 3.05048 -4.37804
82 2 19.5324 5.20901 -0.139748 -2.79569 -6.01461 -5.8714
145 3 21.2985 7.0656 -0.141669 0.205539 -0.234185 2.5544
91 1 24.5725 5.16837 1.60301 0.47836 2.00478 -5.34259
148 1 23.009 7.12572 1.6619 -1.39465 -4.35717 -1.56067
986 2 22.9595 5.15441 3.42562 3.67196 2.38564 -3.82537
1049 2 24.53 6.72508 3.31583 0.615963 0.289818 -0.113274
149 2 24.9559 7.06036 0.0462498 1.32887 -2.72591 2.37762
86 2 22.9569 5.3137 -0.144218 -6.05577 2.6094 -2.56008
990 3 26.5917 5.13464 3.57677 4.12014 -0.636723 0.0215233
151 3 25.1248 8.71754 1.76605 2.09307 -1.32537 -3.61131
1050 1 26.7266 8.6483 3.38872 1.55431 -5.74762 -0.0788717
122 3 1.53107 8.85273 -0.0308926 -2.36333 2.29412 0.538971
1022 1 1.54803 8.91428 3.2843 1.71414 -3.34836 -0.690212
184 3 1.51535 10.6398 1.74297 3.62877 -3.08406 3.56937
187 3 3.32959 12.5444 1.70731 -3.74911 -2.70873 -1.26679
1082 3 1.72593 12.5492 3.44734 -5.47077 -1.18899 4.921
1085 1 3.77842 10.4073 3.23319 -2.52088 8.01975 -2.03842
185 3 3.14982 10.6718 -0.10143 2.37213 -3.54293 1.12789
183 3 -0.0850019 12.4755 1.82067 1.52985 -0.0311388 -3.82007
182 1 1.58396 12.3554 -0.0173631 3.51349 -0.478674 4.76638
131 2 7.38291 8.9486 1.67065 0.544228 1.67827 9.39544
188 1 5.55251 10.5709 1.59044 4.20953 -2.9727 1.15238
191 2 7.01254 12.307 1.64935 -2.9458 1.29966 -5.28353
1086 3 5.24225 12.5133 3.25673 -4.51743 5.3282 4.65631
1089 2 7.34579 10.7202 3.49262 2.74647 1.74362 0.27754
192 1 8.75858 10.7781 1.50803 -0.74843 2.96324 -3.61816
186 3 4.91473 12.1329 -0.147884 1.64745 5.11556 4.63967
134 3 12.558 8.9238 -0.0234679 -1.36804 3.26121 -4.2674
1090 3 9.14634 12.5244 3.65509 2.48282 -0.274816 -2.29355
1030 1 8.99123 8.90675 3.53886 2.38333 0.158085 4.1975
135 2 10.6294 8.86212 1.71455 -1.33408 -8.80471 4.40488
195 3 10.7414 12.4179 1.58483 10.01 4.19392 -1.08778
196 1 12.4136 10.5157 1.73252 0.475781 -1.21073 -2.04881
1093 3 10.6601 10.9209 3.45932 -6.26058 -0.810708 3.11963
1094 2 12.4622 12.4889 3.40052 -2.21562 -4.32447 -0.0438084
194 3 12.4518 12.3104 -0.0926799 -0.716313 4.18045 1.61907
193 2 10.5357 10.4403 -0.062177 2.42808 0.212126 2.34303
138 1 15.9972 8.83271 -0.159455 -2.84656 4.36683 -0.0670424
199 1 14.181 12.6176 1.51898 -6.50581 -0.826984 -3.10216
200 1 15.9546 10.7998 1.41362 3.24441 -3.07268 4.25826
1097 3 14.2993 10.9002 3.294 -0.0884506 -0.155455 0.900768
1098 1 16.0131 12.5857 3.34013 -3.37094 5.13801 1.88952
1101 3 17.6409 10.5922 3.19214 2.13013 6.91796 -1.89778
203 2 17.6795 12.5581 1.58562 1.74096 -3.36016 1.17939
197 2 14.1621 10.4136 -0.102883 -2.93652 -1.2529 -1.45889
198 1 15.8389 12.6144 -0.155413 -0.0552843 1.53818 -6.00478
1042 1 19.4385 8.87137 3.24157 3.61499 -0.101144 -3.09769
147 2 21.2384 8.99302 1.54552 0.633898 2.56536 -3.5199
204 3 19.2499 10.5091 1.4216 3.66409 -1.08429 3.65424
207 2 21.1684 12.3606 1.64923 -3.30942 0.971352 2.93333
1102 1 19.4961 12.5335 3.34909 -1.87348 -1.09657 -4.5521
1105 1 21.1451 10.8076 3.59155 2.64989 0.409428 -3.28679
205 2 21.1322 10.5829 -0.151798 -2.49555 -3.53979 -2.57125
202 3 19.6319 12.4864 -0.166853 -4.36167 -2.95629 3.58252
1046 1 23.022 8.88268 3.46198 1.2701 5.67376 6.37367
208 1 22.9539 10.6755 1.74091 -6.58707 -3.85469 -5.69388
211 1 24.7442 12.4762 1.57772 -3.19557 0.0765796 0.373572
1106 2 23.0781 12.4885 3.38051 6.31029 2.32465 1.85904
1109 2 24.7871 10.4513 3.51793 1.30914 6.05145 -0.715926
212 2 26.6965 10.6245 1.62814 -1.68926 -1.69714 -1.24364
209 2 24.9937 10.7072 -0.121894 0.319724 -3.57682 -2.20968
1110 3 26.511 12.2361 3.57296 -4.63644 -1.32044 2.73844
146 1 23.2377 8.98221 -0.0760909 2.84758 -0.769285 -1.13762
206 3 22.9909 12.3796 -0.127101 -2.60878 0.694136 3.56194
244 3 1.63826 14.343 1.56664 -0.763907 -1.85546 0.136157
247 2 3.32936 15.9901 1.75059 -7.5134 -1.6281 -7.51726
1142 1 1.42929 16.0907 3.37216 4.06316 -2.66074 4.43136
1145 2 3.51585 14.4357 3.51029 -3.62528 0.60407 -0.672875
305 1 3.67755 17.7567 -0.0601042 4.39321 2.57 -3.6995
242 1 1.645 16.0445 -0.158337 3.1722 4.25161 5.08519
248 3 5.20089 14.397 1.65094 11.7338 -4.86183 -0.296916
251 2 7.15305 15.9727 1.65257 -0.55876 1.75814 -6.09202
1146 3 5.2106 16.0642 3.478 -1.193 -6.01083 2.22957
1149 3 7.01588 14.1437 3.48058 1.35288 1.25655 7.37629
246 3 5.37553 16.0399 -0.0238491 1.20186 -0.511465 -4.14683
1209 3 7.0048 17.5142 3.51745 -2.73005 -4.20802 6.30036
1150 3 8.79016 16.031 3.41203 -1.9255 2.31385 -0.783082
252 3 8.84502 14.0381 1.68597 -6.42828 1.31783 -1.47971
255 2 10.3801 15.9364 1.42342 2.11853 4.66237 0.618777
256 3 12.3931 14.3958 1.601 3.99587 -5.87417 -3.75193
1153 3 10.8415 14.2861 3.44821 -4.96717 3.03062 1.55761
1154 3 12.5365 15.9595 3.59579 0.803652 -5.46086 -0.934532
254 1 12.4372 16.2237 -0.109932 9.06292 3.59846 -2.8329
1213 3 10.8336 17.6764 3.27859 3.40798 -2.88058 -4.12653
259 1 14.2516 15.9539 1.79339 0.234957 2.21873 -0.352805
260 2 16.0587 14.3035 1.60204 -9.23807 -4.51255 5.57455
1157 1 14.2446 14.2258 3.50875 -1.20396 1.80175 -1.26222
1158 2 16.0407 16.208 3.54019 0.362015 1.9053 5.53921
320 1 16.3682 17.6129 1.53126 0.855343 -0.442498 0.616648
1161 1 17.7146 14.1864 3.67481 1.81773 2.76159 -1.77235
317 2 14.4325 17.5062 0.176398 -2.43297 0.435089 -4.84553
257 3 14.2238 14.3182 -0.0877199 -2.44564 -5.27891 2.88673
1221 1 17.7578 17.7449 3.52904 -2.06899 -1.38225 2.77748
261 1 17.767 14.1386 -0.144823 1.47362 -0.99861 5.00347
263 3 17.8666 15.9148 1.82934 -1.84228 0.103776 1.38911
264 3 19.5248 14.0924 1.49605 -3.26221 0.910831 -0.563316
267 1 21.1901 15.9222 1.56831 -2.91973 -2.2979 -5.81975
1162 2 19.4787 15.8808 3.40433 -0.465692 0.280031 1.7669
1165 1 21.2163 14.1515 3.26625 2.58253 2.51043 -3.66849
324 2 19.3956 17.6005 1.60778 -8.57385 6.06597 5.22014
1170 1 26.5835 16.1274 3.61305 -0.128963 -6.64062 -3.05262
268 3 22.9245 14.1595 1.57423 0.140437 -5.6322 -1.01916
271 3 25.0852 16.2085 1.769 -0.21482 4.58421 -5.47695
1166 2 23.0645 15.7534 3.41962 -7.13939 -0.397498 -0.730893
1169 1 24.9449 14.2604 3.38324 2.82997 4.4021 -0.52594
269 3 24.7066 14.1662 -0.00825789 -2.82297 -3.55661 -3.16267
1229 1 24.652 17.5354 3.54737 -0.433172 6.11616 -2.54411
328 3 23.138 17.5584 1.4724 -0.742604 -1.1951 -1.18061
272 2 26.5847 14.3608 1.87383 -5.19299 4.83135 1.60316
1205 1 3.14594 18.0183 3.71911 1.65186 3.74129 -1.34088
304 1 1.71933 17.9869 1.61035 -4.45604 0.632705 0.590202
307 3 3.54742 19.6892 1.75319 2.5528 1.024 0.160496
364 1 1.61066 21.4214 1.35809 -0.664408 -0.375562 3.71849
1202 2 1.68262 19.7951 3.59542 -7.25795 2.43012 -1.61146
1265 1 3.48104 21.3911 3.39652 1.02339 -2.56288 -5.65963
361 1 -0.166527 21.3996 -0.127489 4.15397 -0.364602 -0.297604
308 3 5.34207 17.8098 1.74829 4.12144 2.30105 0.494842
311 1 7.23867 19.5715 1.51741 2.5347 -2.54496 0.286937
368 1 5.44954 21.3601 1.60009 4.89457 2.92361 -3.01562
1206 2 5.35215 19.3743 3.42756 -3.74765 -0.681769 -1.28545
1269 1 6.82558 21.2916 3.61506 -1.32386 2.30569 6.66671
306 2 5.14389 19.4199 -0.1183 0.00928318 -1.96319 -3.51307
369 1 7.12996 21.4612 0.173101 -2.41226 -6.45462 6.24819
312 3 8.79193 17.8187 1.58889 -4.29345 2.61395 -2.62069
1210 2 8.82331 19.392 3.1959 2.86147 1.62841 0.69587
310 2 9.16281 19.6708 0.022865 2.11544 -3.32567 -2.17058
316 2 12.5573 17.8319 1.6338 -0.288174 -2.72774 1.13416
372 2 8.83773 21.4804 1.7206 -0.74137 1.05929 1.12347
315 1 10.6961 19.6126 1.66939 -0.224301 -0.00246713 0.941414
376 2 12.3987 21.5469 1.5494 -1.79715 2.6338 -5.45975
1214 3 12.5647 19.723 3.4438 -1.81757 4.13408 7.65693
1273 3 10.7614 21.3499 3.38188 -5.74758 6.48665 0.96487
313 1 10.5808 17.8723 0.0147809 3.39378 1.36215 3.83274
314 3 12.4773 19.7308 -0.176645 1.42182 2.80968 0.880701
1217 2 14.1785 17.8662 3.43867 -0.0610744 0.790922 1.03873
319 3 14.1211 19.6195 1.77658 2.12237 0.429312 -1.74776
380 3 16.0574 21.3982 1.66803 4.54895 1.32332 -3.82246
1218 2 16.0067 19.3893 3.50166 -2.85664 -2.71182 8.39127
1277 2 14.3974 21.562 3.49901 3.93448 -5.12032 -0.252087
377 1 14.3993 21.6525 -0.0704869 -5.08901 9.88402 1.49915
1225 3 21.2923 17.8163 3.25876 -4.2437 0.242657 -1.33309
1281 2 17.8342 21.4275 3.41768 1.50985 -5.95527 -0.470594
323 2 17.9907 19.6734 1.88412 1.32252 3.29573 4.62644
327 2 21.2479 19.594 1.69627 2.80117 4.71785 -5.78798
384 1 19.638 21.4687 1.35156 -0.268816 3.19831 8.16983
1222 1 19.4979 19.3263 3.8027 1.55498 2.26957 5.94877
1285 3 21.3737 21.3374 3.27478 -1.23643 -0.0449731 4.27443
322 3 19.7369 19.5963 -0.154048 2.53201 5.14571 -5.05343
332 2 26.6906 18.0835 1.81123 -3.22661 7.88382 -5.86242
331 2 24.8586 19.5183 1.65557 0.83692 -0.930681 1.47227
388 3 22.9844 21.5341 1.46936 -5.81365 -1.12443 0.118511
1226 3 23.0752 19.5617 3.32528 0.378971 -1.07069 0.758015
1289 2 24.7981 21.3807 3.55897 2.81607 -8.54979 2.72161
1230 1 26.6173 19.6069 3.40021 0.147408 -1.94271 -0.0548102
330 3 26.6203 19.728 -0.022283 1.31677 -5.08596 -1.87579
392 1 26.4948 21.4539 1.70984 -1.73055 1.93784 -0.237005
389 1 24.7746 21.3739 -0.0930307 -2.01491 2.06806 -1.03946
326 1 23.1928 19.5808 -0.13552 -0.0581043 -3.9573 2.97066
363 2 -0.0841928 23.1197 1.60384 -2.3948 1.25501 0.636317
427 3 3.46197 26.5871 1.51982 0.508444 -1.20309 2.68335
367 2 3.45393 23.2193 1.6062 3.75523 -1.44009 6.63291
424 3 1.5517 24.9474 1.60499 -0.298596 -3.2406 -0.0467463
1262 3 1.47465 23.1135 3.31424 5.08207 -0.0495533 -0.357327
1325 1 3.30633 24.8255 3.27993 -1.53 0.321718 -0.406708
422 2 1.6008 26.6107 -0.161031 7.89536 -3.6409 -5.68341
425 1 3.41055 24.7244 -0.160716 4.98448 -0.393317 0.0740054
1322 2 1.6714 26.6755 3.43492 -4.60033 -5.17119 0.10399
423 3 -0.143556 26.7238 1.54562 4.5697 -1.55334 1.33382
371 1 6.94227 23.1451 1.92205 -5.36842 0.140367 0.617756
428 2 5.12472 25.0181 1.91991 1.30458 2.30487 -0.0669079
1266 2 5.13885 23.1475 3.45497 0.785658 3.10137 -2.95323
1329 2 6.98383 24.865 3.55047 -3.43545 -0.882433 -0.234809
1326 1 5.14133 26.7467 3.53321 -3.16178 1.28395 2.34998
366 3 5.32818 23.2539 -0.14976 -1.19951 -0.980698 0.521445
429 3 6.98628 24.8754 -0.0379181 -2.15957 1.89201 -2.96896
431 1 6.9645 26.5183 1.74103 -0.992687 0.528604 1.23878
370 2 8.6776 23.202 -0.137418 2.85415 -2.00114 -1.20081
1270 3 8.62608 23.0504 3.48436 -4.22212 -5.66178 2.57757
432 1 9.07837 24.8572 1.86156 5.22522 3.7564 3.6322
375 1 10.68 23.0321 1.72615 6.53929 -6.57984 -4.76558
436 3 12.4834 24.9105 1.45297 -1.15788 -0.251185 3.90332
1274 1 12.5087 23.3522 3.69068 -4.807 -3.74129 -2.29582
1333 2 10.7007 25.1694 3.35769 -1.95507 -8.75409 -4.39681
433 2 10.5768 24.7578 -0.0314791 1.031 0.716631 -0.751927
379 1 14.1758 23.1151 1.80639 -1.43046 -3.39237 4.55217
440 2 15.7321 25.02 1.55532 -4.92433 1.85712 -1.83599
1278 1 16.212 23.3157 3.62862 -2.57446 4.71017 5.32011
1337 1 14.14 25.144 3.38141 -1.80241 -3.26502 6.12686
443 3 17.7421 26.7128 1.78522 3.72266 1.6189 2.10297
383 3 17.759 23.1234 1.72675 -0.0194004 3.34744 6.53821
378 2 16.0175 23.006 -0.160446 6.07594 1.15661 0.0656923
1338 2 16.2796 26.6493 3.51243 1.74952 -5.65737 -2.74226
1341 2 17.8932 24.8615 3.46316 5.14141 6.6992 -1.80165
1342 2 19.4968 26.6565 3.28012 9.65286 2.83936 -0.863224
387 3 21.4205 23.3659 1.48257 1.27424 -2.39862 0.690245
444 1 19.4807 25.1248 1.66096 -0.801458 -3.17258 4.93206
1282 3 19.5978 23.1309 3.35491 -0.580198 -3.63958 2.19441
1345 1 21.2372 24.9623 3.49744 5.25117 -0.462754 0.670816
452 2 26.7241 24.9963 1.63635 7.97406 -1.25865 2.31976
391 1 24.8671 23.1906 1.4815 3.01494 -0.404642 5.07371
448 1 23.3638 24.8905 1.46817 7.83319 -1.67872 -3.80032
1286 3 23.1387 23.0819 3.55591 1.804 -2.08479 -0.0359349
1349 1 25.0317 25.0266 3.49438 4.95118 3.09698 -4.40658
1350 2 26.6425 26.6798 3.47908 4.46453 4.08044 -1.9324
390 2 26.6143 23.0393 0.0665592 2.32723 -4.60615 4.96365
1346 3 23.0825 26.6883 3.27969 2.57228 -0.832091 1.45907
451 2 24.926 26.7515 1.66582 -1.26677 -0.507193 1.61505
907 3 3.34097 1.65571 5.33429 -0.2463 -6.13089 7.30467
964 1 1.60592 3.45063 5.00894 3.97533 2.27467 -2.55773
1802 2 1.74663 1.88451 7.15587 0.729803 -1.99635 -5.49738
1865 1 3.40146 3.47396 7.0489 -5.1508 -0.910184 0.455127
1861 2 -0.152799 3.27569 6.86435 0.502853 -0.393267 0.889907
904 3 1.53208 -0.137591 5.22444 -4.10525 2.25724 -2.46127
1809 3 6.78298 0.019534 7.18303 3.24443 7.04689 1.56564
911 1 6.73946 1.58841 5.50097 -0.913336 -2.18069 3.66692
968 2 5.35164 3.29469 4.99609 -0.317644 -6.2557 0.00493945
1806 2 4.85164 1.59181 7.45864 -3.15019 -0.99201 0.371345
1869 1 6.87537 3.33073 6.95134 5.06889 -8.41715 -2.35061
916 1 12.4656 -0.0585341 5.30687 -3.59836 1.59422 -5.72221
1810 1 8.85898 1.83472 6.9365 -3.50669 -3.83628 1.93188
972 2 8.85855 3.28143 5.34719 -1.87009 0.864152 -1.50193
915 2 10.6968 1.58082 5.24413 -0.188662 -5.88683 6.61791
976 3 12.2649 3.47339 5.25118 -7.91798 6.0647 5.30566
1814 2 12.1923 1.49772 7.20579 4.63072 7.41714 0.578525
1873 1 10.7215 3.40293 7.05616 -0.112478 1.28604 0.928598
1813 3 10.3673 -0.136528 6.94419 1.94256 -1.45462 6.75041
919 2 14.0268 1.6148 5.11599 -0.0205322 1.61369 0.0593942
980 1 16.0308 3.59998 5.22219 -4.91497 0.721413 -1.96261
1818 2 16.0837 1.88375 7.02145 -2.4448 -2.77801 0.000774158
1877 3 13.9842 3.37643 6.96653 6.57847 1.47038 -3.30556
1817 3 14.2931 -0.108458 7.0483 -9.76601 0.708859 -1.22791
920 1 16.1611 0.0820599 5.34388 3.13628 -1.89098 0.949313
923 2 17.6659 1.76799 5.15675 0.930766 -2.5469 -0.209713
1819 3 13.8962 1.77076 8.76885 2.6558 2.66508 0.65493
1881 2 17.668 3.45087 7.17362 -3.837 -3.90126 4.1732
1880 1 15.9253 3.62749 8.78329 2.47033 0.936738 -2.37648
1821 3 17.7842 -0.119379 7.02457 -1.29031 2.12617 1.4836
927 3 21.4227 1.57283 5.28908 3.88421 4.53887 -2.88489
984 1 19.5032 3.55997 5.2988 -6.98077 2.76258 0.227047
1822 3 19.627 1.40898 7.16005 -1.95774 2.29065 -3.52809
1885 2 21.4947 3.47103 7.24403 4.14681 -6.20338 6.04857
1830 1 26.7545 1.44458 7.03659 -2.29122 -0.00384684 -0.982309
932 2 26.6244 -0.128159 5.4063 3.6579 -2.59861 -6.19118
931 2 24.8956 1.36018 5.35873 -0.988737 -10.0275 6.93142
988 3 23.2328 3.06184 5.29497 3.10713 4.42316 -5.31701
1826 1 23.0551 1.56052 7.49244 2.28194 -4.17532 -1.21951
1889 2 24.8718 3.55122 7.01245 2.87889 2.08499 1.42846
928 1 23.3257 -0.154343 5.43081 -4.22421 -4.51145 -2.51723
992 3 26.6464 3.38503 5.32133 1.34164 0.763766 0.561863
963 2 -0.0504504 5.08091 5.22827 -0.878976 3.61385 -2.77768
967 1 3.35476 5.09014 5.23227 1.80612 -4.14495 -6.19043
1024 3 1.74168 7.10026 5.21879 -3.32008 2.32297 4.99776
1862 2 1.68554 5.49224 6.72157 1.43888 -2.65181 2.17013
1925 3 3.49928 7.17202 6.89648 3.75064 0.0377029 3.38637
1921 1 0.0241613 7.12854 6.74865 1.37042 0.224854 0.144826
1924 3 1.82556 6.85671 8.64483 2.90718 -1.22171 -1.19021
1867 1 3.67544 5.23645 8.50119 -3.17025 0.0630999 -0.226179
1923 3 -0.079672 8.72396 8.58192 1.74498 -4.31805 -1.5569
971 1 7.13422 5.20093 5.49239 4.36096 -4.59207 -0.417455
1028 2 5.29261 6.84035 5.08044 0.166168 5.59172 1.19838
1866 2 5.23838 5.3078 6.94097 0.416264 8.93894 0.693417
1929 3 7.00807 7.18433 6.86186 3.48807 -3.08189 -4.05434
1870 2 8.71371 5.04391 6.923 -1.54666 4.50394 -1.01731
1928 2 5.07106 7.08607 8.6278 -9.1066 1.23699 -4.76334
1871 2 6.91055 5.07761 8.53767 2.63421 -4.50244 -9.70322
1032 3 8.77349 7.14196 5.3168 -1.27353 1.12122 -4.47689
1931 2 7.052 8.7935 8.77727 3.95579 -1.19354 -2.11959
975 2 10.6081 5.29442 5.54515 -5.18428 -0.667872 -1.0801
1036 1 12.2435 7.07061 5.30142 -0.71639 1.45517 -4.38326
1874 2 12.5306 5.37564 7.27067 0.934688 2.13457 -4.05786
1933 1 10.515 6.9323 6.94903 0.0472288 -3.34563 0.74684
1875 2 10.4682 5.34422 8.64588 3.95534 -6.41764 2.05472
1035 2 10.6356 8.6976 5.32296 0.63977 3.31847 6.2642
979 1 14.2501 5.12899 5.23569 0.0305874 -1.46561 4.37332
1040 2 16.0407 7.15021 5.21965 -0.678105 -0.932856 -2.07988
1878 2 15.832 5.48956 6.97314 -1.65061 -2.09493 0.802286
1937 1 14.3057 7.09155 6.74511 5.2574 4.76679 3.37807
1940 3 15.8075 7.195 8.45145 -2.29494 3.99774 -3.06578
1039 2 14.1176 8.65798 5.19378 -4.93976 0.451447 3.07534
983 1 17.6903 5.2773 5.18693 0.567377 -0.358871 -1.12549
1043 1 17.8895 8.65555 5.1799 5.64091 -4.7353 -2.82691
1883 1 17.7859 5.2108 8.77148 -1.53265 -3.59884 3.37136
1941 2 17.9504 6.77916 7.05972 -1.55224 -3.09127 3.885
987 2 21.5714 5.00669 5.37978 4.31857 1.15813 7.2499
1044 2 19.6117 6.81764 5.27821 -0.648082 -0.460748 -0.423814
1882 1 19.6855 5.19534 7.27908 -1.28397 -6.91841 -1.7681
1945 2 21.2572 7.00621 7.21447 1.91662 -0.347856 3.78432
1942 1 19.6612 8.7559 7.05563 4.32517 -0.569268 0.791824
1052 3 26.462 6.92398 5.09466 0.421116 1.45541 -0.699678
991 3 24.8359 5.156 5.19248 -1.33842 1.67829 4.32097
1048 1 22.8856 6.97537 5.25218 0.869224 -1.68778 5.33543
1886 1 23.1865 5.27763 7.10744 -1.41699 -6.92239 0.905746
1949 2 24.8967 6.89558 7.01466 -4.95247 -1.96069 -1.3264
1946 3 22.8521 8.69541 7.12412 -1.42873 -3.63966 5.822
1051 3 24.7718 8.76032 5.27708 3.02328 -4.17951 3.15984
1890 1 26.7167 5.06033 7.16565 -4.48379 -6.79375 2.4807
1023 2 -0.11386 9.13471 5.17384 -1.01765 -0.574618 1.68992
1027 3 3.55877 9.01034 5.2082 3.4461 -6.38563 0.486928
1922 3 1.71654 8.81976 6.97661 3.77322 -4.42704 0.0587692
1084 3 1.73989 10.6955 5.05649 3.09638 4.58977 3.95419
1087 3 3.43188 12.5553 5.12083 -0.121748 -5.71681 0.861655
1982 2 1.56044 12.656 7.0117 -2.03342 -4.17855 2.40252
1985 3 3.25517 10.8411 6.84609 -0.582808 -1.55751 -1.8231
1984 3 1.42441 10.4746 8.78002 4.11909 4.75579 6.35725
1987 2 3.5063 12.6267 8.70175 -0.269043 2.83983 -0.456855
1926 1 5.309 9.05743 7.09639 3.14301 -2.09373 2.8313
1031 1 7.15477 8.93336 5.41004 3.47798 -4.00158 -7.51269
1088 2 5.15656 10.8547 5.32112 0.675115 4.19157 0.312005
1091 1 7.16074 12.1684 5.18609 -1.71356 0.0822721 -5.05894
1986 1 5.31026 12.3938 7.01819 -0.355565 -1.74769 0.0780756
1989 3 6.94382 10.7151 7.00894 2.07263 -2.85293 -1.80343
1988 1 5.14666 10.8241 8.68153 -7.67939 3.57625 -0.116159
1930 2 8.95847 8.88706 7.32561 0.287624 -4.95358 3.98729
1990 2 8.97601 12.5382 6.99098 -3.10631 -0.959638 5.46244
1934 3 12.4662 8.96891 7.03606 3.26082 -3.10242 -0.215974
1092 2 8.98248 10.8429 5.47534 -1.56946 -7.61992 -1.50655
1095 1 10.7835 12.477 5.44136 -3.08718 2.94864 0.248112
1096 3 12.4314 10.7143 5.32065 -2.73 -3.9456 4.42383
1993 3 10.656 10.6507 6.99777 -1.9154 -3.1475 -1.74133
1994 1 12.2714 12.571 7.19393 -0.287854 3.43315 0.684349
1935 2 10.6578 8.85758 8.67602 2.60618 1.63555 -1.84822
1938 3 16.1355 8.90719 6.80755 1.86269 0.0705246 2.6624
1099 3 14.1679 12.479 5.28509 -3.79687 1.80891 -2.38149
1100 3 15.8782 10.4133 5.10996 -1.16751 7.01964 1.44556
1997 3 14.3822 10.4776 7.05052 2.93807 -1.60944 1.82128
1998 1 16.0623 12.4592 7.04492 2.15296 5.2606 -2.36467
2001 3 17.7349 10.6173 7.13861 -0.823681 1.28775 2.75658
1103 3 17.6694 12.1498 5.25111 -2.42381 -0.159987 1.46537
1939 3 14.2537 8.97835 8.72034 -5.3531 1.18303 -1.91809
1943 1 17.6777 8.9054 8.68824 2.85461 -4.45753 1.00549
1047 2 21.035 8.91371 5.15475 -6.99951 -0.614055 -4.18706
1104 2 19.2583 10.534 5.14764 1.29021 -2.52629 -0.591812
1107 1 21.4504 12.3691 5.32207 1.10306 2.42224 3.19335
2002 3 19.5434 12.4521 7.0923 -2.3406 2.57854 3.02647
2005 3 21.0134 10.632 7.0427 1.3697 -0.528022 4.0178
2010 1 26.7517 12.4268 6.90875 -1.39359 -4.05332 1.99091
1108 3 22.9812 10.5663 5.30695 2.03691 -0.0531055 1.89194
1111 1 24.8642 12.4342 5.16082 -2.66776 1.22447 1.52967
2006 3 22.9721 12.2489 7.0599 -3.54686 -2.99658 1.4762
2009 3 24.9295 10.5495 6.86924 1.07954 -1.91587 5.107
1112 1 26.6782 10.4991 5.19866 4.08654 3.28922 -0.650142
2012 3 26.6433 10.6397 8.69911 2.70857 -0.556683 3.87697
2011 2 24.8011 12.3737 8.76639 -0.901671 1.86194 6.38382
1144 3 1.50575 14.2686 5.18302 1.06487 2.36389 2.83967
1147 1 3.37289 15.9996 5.22354 -2.60716 0.318302 -0.683955
2042 1 1.52878 15.9471 7.30859 -2.78214 3.73026 4.63489
2045 2 3.38687 14.1448 7.13516 6.54039 4.36964 0.910268
2105 2 3.42963 17.7621 6.90661 -3.73675 3.00669 -0.630968
1204 2 1.59512 17.5567 5.37342 -0.762089 -5.62461 -6.30233
1148 3 5.28531 14.2342 5.13846 0.125033 -1.12508 3.48431
1151 3 7.02288 15.7475 5.33815 3.63394 3.44157 3.42179
2046 2 5.06614 15.7691 6.86721 -3.70653 3.10055 2.52328
2049 1 7.10601 14.1451 7.05671 2.80318 1.61214 -2.31427
2050 3 8.75364 16.2334 7.02553 -0.369957 0.109491 2.07984
2109 1 6.81033 17.7135 7.12683 -0.410208 2.57427 3.15986
1212 3 8.75616 17.712 5.21391 1.86872 0.888501 0.458832
2108 1 5.28757 17.5416 8.7762 1.04343 -0.787677 -1.06888
1152 3 8.96695 14.2457 5.25507 3.23766 -3.20152 3.32539
1155 3 10.73 16.0357 5.2916 5.3609 -3.96746 -3.91942
1156 3 12.7447 14.1569 5.49537 2.48035 -1.03536 -1.04225
2053 2 10.649 14.364 7.14867 -1.57577 6.44157 -0.230409
2054 3 12.1991 16.0454 7.14247 6.66405 -3.1132 0.543057
2052 3 8.89793 14.3822 8.72536 -1.76537 -2.79322 -5.89581
2055 1 10.4851 16.3074 8.79621 -4.15523 -1.43307 -1.57893
1159 3 14.3033 16.0466 5.0943 2.44854 -4.08038 -8.00169
1160 1 15.9118 14.0276 5.33212 -0.949876 -2.9591 -1.48788
2057 2 14.1016 14.1973 7.28095 -0.362507 -1.377 -2.61119
2058 1 15.9723 16.0569 7.29488 10.8288 0.953059 2.18211
2061 2 17.7176 13.989 7.04487 5.23698 3.63111 -3.62625
1163 2 17.5085 15.8374 5.43799 0.941579 -8.74896 -1.60767
2117 2 14.0146 17.7537 7.07302 5.05977 1.5517 -0.0096868
2063 2 17.648 15.9452 8.79244 -7.13095 4.90353 0.604687
1164 3 19.5369 14.1306 5.07511 9.00171 2.75598 1.18086
1167 1 21.1952 16.0163 5.14323 -3.68242 7.14116 5.20798
2062 1 19.4473 15.9083 7.38923 6.49779 -0.656745 5.08432
2065 2 21.1962 14.2075 7.11349 0.0974407 2.35095 4.66633
2125 1 21.128 17.5629 7.09488 -1.37205 3.85825 3.91259
1224 2 19.5006 17.5437 5.34332 2.74296 6.95071 -2.95229
2064 3 19.4921 14.0461 8.78658 2.83789 0.529815 -0.170598
1172 2 26.5266 14.3753 5.15703 -0.807876 -0.931511 3.8549
1168 1 23.0747 14.1782 5.2942 1.41588 1.59513 3.83123
1171 2 24.7292 16.0754 5.52657 -4.77386 1.03525 -4.97802
2066 2 22.8933 15.8127 7.012 -1.37126 3.24991 3.82195
2069 3 24.834 14.0191 7.10238 -1.91442 1.76998 -1.22109
1228 1 22.7953 17.7632 5.37248 -2.70467 3.30663 2.5778
2128 3 22.9728 17.6374 8.75798 0.0799736 0.579788 0.518524
2072 2 26.7114 14.2156 8.77675 1.26043 6.41139 4.92904
2071 1 24.6663 15.9235 8.80054 4.38074 -4.50249 1.7241
2070 3 26.6026 16.04 7.0563 -5.7274 3.42033 -0.0188376
2068 1 23.1068 14.1234 8.79371 -2.62918 1.04816 -2.22788
1203 1 -0.00541881 19.468 5.16925 2.00126 5.46499 -1.12494
2161 3 -0.0378226 21.4743 6.86404 0.889468 1.99432 1.29639
1207 1 3.24608 19.4901 5.3982 -2.21196 -2.18265 -2.24465
1264 1 1.76588 21.422 5.10919 -2.64103 -5.39378 6.00792
2102 3 1.56497 19.6429 7.01247 -0.166481 -0.677863 5.5167
2165 2 3.18293 21.3302 7.05576 -1.87489 0.18152 -4.76614
2107 1 3.13672 19.5083 8.71927 -3.61141 -0.137225 5.66414
1208 1 5.04513 17.8351 5.29347 4.7795 0.529173 -2.975
1211 3 7.10702 19.4305 5.12092 -9.27437 4.02068 -0.799404
1268 2 5.14239 21.4228 5.46659 0.395346 -1.92712 -3.32803
2106 2 4.83728 19.7539 7.04023 4.62293 -5.01734 -4.07656
2169 3 7.09738 21.228 6.84047 0.859245 -3.40694 1.83271
2110 1 8.77805 19.545 7.07419 5.63412 -4.66619 -5.67039
2111 2 6.76216 19.5054 8.58235 -2.41478 3.08296 2.03718
2113 1 10.622 17.9447 7.11729 0.93556 2.11089 -0.149311
1272 3 8.87048 21.3988 4.94108 0.043254 4.45127 4.60016
1216 3 12.3422 17.8697 5.24062 -0.269332 -2.46088 0.472283
1215 2 10.3604 19.4344 5.15192 -7.40291 -3.49433 3.22462
1276 1 12.5026 21.5049 5.20506 3.20088 -2.02385 -2.14911
2114 1 12.4146 19.6619 6.62546 1.20056 -3.33233 -5.66054
2173 2 10.6369 21.4973 6.92402 9.5242 2.88211 -2.09504
2115 1 10.5807 20.0505 8.55017 -1.16658 8.50353 2.09627
2176 1 12.3634 21.3689 8.71243 1.83981 -1.90066 -2.49975
2121 1 17.6613 17.8849 7.08488 0.0467945 -2.94874 2.87021
1220 1 16.0083 18.0234 5.30278 2.13601 -3.00372 4.90768
1219 1 14.3361 19.8438 5.10682 2.80849 3.6394 -8.23735
1280 1 16.254 21.5369 5.25746 -1.92827 1.60015 -3.19721
2118 2 16.0556 19.8478 7.13852 -9.11867 3.69052 -3.99792
2177 2 14.2677 21.4474 7.09674 -9.12679 -0.521754 -4.67858
2180 1 16.2312 21.5687 8.65541 0.631412 -2.77992 -2.3869
2120 2 15.9686 17.8181 8.75754 -6.13393 -0.458896 -2.46997
2181 2 17.8981 21.4885 7.13268 1.17239 -3.96053 2.23392
1223 2 17.8308 19.4749 5.3949 -2.11849 5.54458 -2.12389
1227 2 21.3587 19.509 5.46723 0.691728 0.400037 -4.53767
1284 1 19.606 21.4116 5.40935 -0.411343 3.08362 0.527091
2122 1 19.5006 19.6695 7.31818 -1.05538 -2.13593 2.83031
2185 2 21.1571 21.495 7.18003 -2.61009 -1.35521 -1.84827
2127 2 21.346 19.3762 8.72183 -2.8088 4.29707 -6.51074
2129 3 24.8897 17.8957 7.11212 -3.34209 1.99882 -4.69628
1232 2 26.7067 17.7821 5.35829 7.27333 -1.16682 3.75163
1231 2 24.8935 19.3068 5.08872 4.98451 -0.55882 1.29318
1288 3 23.1882 21.3424 5.25499 5.92611 -3.24916 0.821322
2126 3 23.1813 19.9092 7.21439 -4.88599 4.77174 -0.154907
2189 3 25.0397 21.3192 6.88308 2.5879 -1.57405 2.55435
2130 3 26.6859 19.5161 7.02018 -0.815935 -6.61903 -3.25783
1292 1 26.7085 21.3448 5.06469 5.10646 4.52234 4.7516
2222 3 1.45142 26.6954 6.95135 0.718161 -2.29266 0.85217
1267 2 3.82559 23.4075 5.1347 1.9211 -0.456098 0.565705
1324 3 1.50352 24.6545 5.06894 -1.29296 -1.33982 2.00352