ITEM: TIMESTEP
109200
ITEM: NUMBER OF ATOMS
13500
ITEM: BOX BOUNDS pp pp pp
-1.7836619665662568e-01 5.3698366196641580e+01
-1.7836619665662568e-01 5.3698366196641580e+01
-1.7836619665662568e-01 5.3698366196641580e+01
ITEM: ATOMS id type x y z vx vy vz
7 3 3.16491 1.70637 2.12746 -0.378277 3.30701 8.38696
64 3 1.37968 3.35734 1.90274 -0.312619 -3.862 6.02055
902 3 1.44421 1.78941 3.80373 4.84932 3.77795 -1.42759
965 2 2.97617 3.5436 3.62521 1.80626 1.34266 -0.0791758
2 3 1.35586 1.56103 0.0937577 -2.02587 -2.55445 1.19413
65 3 3.21725 3.4048 0.148934 -3.15924 9.09984 4.2955
905 3 3.20425 -0.159871 3.79197 2.30612 -3.62073 1.75502
5 3 3.00925 0.114457 0.175486 -3.16908 0.868306 -10.0904
4 2 1.23884 -0.160015 2.02391 3.59469 2.4436 4.23914
11 2 6.69886 1.66762 2.14143 -0.884267 -2.44935 -3.46098
68 2 4.67205 3.58724 2.08995 2.25556 2.65666 2.77725
906 1 4.98854 1.88123 3.7863 11.8372 -2.09418 2.83455
969 1 6.80538 3.62331 3.65053 -4.83556 -1.05166 -3.67281
72 1 8.53516 3.57256 1.74842 3.11654 -0.0788424 -1.64832
10 2 8.52814 1.89017 0.179754 1.91522 -0.263743 -5.80271
8 3 5.01223 -0.0700094 1.89948 -1.06579 -4.20095 -2.26351
69 1 6.55031 3.54994 0.412674 2.85949 1.48089 -0.562117
910 3 8.57419 1.68839 3.72507 -3.57078 -3.16103 -1.28127
909 1 6.7878 0.060702 3.83616 -1.0615 2.26788 4.57088
6 3 4.90474 1.62999 0.25584 -1.90102 1.37179 -2.30569
9 3 6.81385 0.0991189 0.0915698 5.1798 3.9958 -6.25446
12 1 8.4091 0.155718 1.79957 -4.06296 4.45769 -1.81297
15 2 10.1504 1.55525 1.96158 1.16368 -5.84392 -2.1353
76 1 11.8368 3.52776 1.86541 -3.44601 -2.12322 3.99527
914 3 12.0861 1.82158 3.73659 -0.0131019 1.41173 -6.18256
973 3 10.2233 3.63046 3.44747 -0.930737 3.62481 -7.38006
14 2 11.8653 1.69525 -0.000741204 -0.651862 3.07378 -1.90526
913 1 10.3868 -0.162017 3.80521 -0.963196 -1.12492 -0.805284
73 2 10.2105 3.7623 -0.115849 0.532393 -1.75455 2.08111
19 3 13.4896 1.60534 1.65194 4.90053 10.6386 -0.270639
80 1 15.5567 3.66098 1.58311 2.6814 -1.62061 1.92718
918 1 15.6776 1.98672 3.71313 -2.37701 2.88532 -4.80929
977 2 13.6962 3.26316 3.60278 1.60476 0.0596512 -2.44485
20 1 15.5046 -0.0181394 1.73347 -0.471239 -0.66337 -0.303592
23 2 17.5091 1.7079 1.90682 1.16408 3.65912 -8.36065
77 2 13.5743 3.54203 0.159869 -0.874831 -4.46294 -1.97085
921 2 17.4997 0.145516 3.57788 8.21908 -1.70618 1.46463
21 1 17.53 -0.103806 0.277653 -2.51455 0.189616 3.20944
981 2 17.3452 3.43741 3.64769 1.22888 -1.48209 1.35437
81 1 17.3903 3.66377 -0.173138 -0.942511 -2.83049 1.07295
17 3 13.7638 0.0692945 -0.12662 0.862222 -1.22163 -1.26587
18 2 15.7665 1.74265 -0.0473489 -2.86675 1.08029 1.84617
917 2 13.9973 0.00331291 3.67065 -4.33114 6.54812 -0.911474
27 2 20.9432 1.93001 1.96671 0.799619 -1.64366 1.00107
84 1 18.9131 3.71205 1.77442 -4.42653 -0.643854 -4.62299
922 1 19.3158 1.6511 3.64513 -1.60598 1.75125 1.25569
985 3 20.8392 3.72812 3.61716 -0.110917 5.26055 -2.03088
24 1 19.4262 -0.0613564 1.92046 2.6139 -3.80982 -1.69099
22 2 19.4528 1.78371 -0.0698386 -0.888816 1.27465 1.41406
25 1 21.2705 0.0470678 0.113516 -0.316831 0.230279 -0.32242
85 1 21.1336 3.69003 0.22256 2.83263 4.11143 -1.25784
925 3 21.1476 -0.0219165 3.70047 -2.15975 -1.05959 -5.50445
31 3 24.8011 1.7153 1.98863 -1.7789 3.59211 2.25157
88 1 22.9467 3.52339 2.09512 4.17493 0.993715 -7.62683
926 3 22.9762 1.77207 3.74158 3.45484 -3.18318 1.54136
989 3 24.835 3.68268 3.65616 0.753841 -1.20714 5.76426
92 3 26.5051 3.55093 2.02159 -0.0418152 -1.86068 -2.30738
32 3 26.5062 0.239399 1.70667 0.388355 1.36564 0.113474
28 2 22.8332 0.16501 1.91504 0.612941 1.48591 4.32078
29 3 24.587 0.134561 0.159736 -2.42632 1.48089 -1.91792
89 3 24.7503 3.73168 0.0627367 0.0814135 -0.00440181 -0.125138
26 3 22.8859 2.03018 0.214823 -1.70303 -2.53063 -6.86923
930 3 26.4067 1.62174 3.91556 -0.472238 -5.45858 -2.9741
30 1 26.5287 1.94815 0.102465 2.82467 0.491801 -1.52385
929 3 24.7409 -0.0941338 3.74421 0.826262 2.37924 -4.41302
67 1 3.27083 5.2858 1.6593 -1.97868 1.39569 3.97852
124 1 1.26576 7.16277 1.61281 -9.25827 -3.69094 2.37991
962 3 1.39971 5.27654 3.41926 6.33556 1.00851 2.54095
1025 2 2.94941 7.34879 3.7053 -5.37406 0.926566 3.51799
125 2 3.10577 7.16281 -0.113517 -1.10866 -2.45753 -8.62637
71 2 6.75407 5.29409 1.88385 1.96541 -4.74874 -6.84991
128 3 4.90708 7.13318 1.80594 1.96519 1.94595 2.13338
966 1 4.98125 5.43986 3.65111 -2.3004 2.13768 0.174911
1029 1 6.6944 7.37965 3.50428 -2.2784 -6.2692 -10.5101
970 1 8.64816 5.64279 3.50532 -3.00057 1.91335 -1.78356
132 3 8.30773 7.37975 1.71168 3.18391 5.11116 -3.07349
129 1 6.55581 7.11593 0.106915 4.8402 1.00007 5.71716
66 1 5.03247 5.30008 -0.0364197 2.67773 3.06724 -0.540135
70 2 8.33839 5.15374 0.0125853 2.08868 -0.181522 5.70189
75 1 10.3102 5.51474 1.65334 -0.834256 0.00477421 4.53781
136 2 12.0588 7.15313 1.50761 -3.24383 -6.44454 -0.109946
974 3 11.9378 5.41995 3.4567 0.0604947 2.40809 -1.41601
1033 2 10.4794 7.25563 3.28513 -3.17589 2.95432 -6.18832
79 2 13.6975 5.10296 1.60781 0.98073 -1.39857 8.57703
140 1 15.5835 7.05952 1.71852 -6.88648 1.70364 1.00397
978 1 15.4092 5.10971 3.45679 -0.638525 7.22107 6.91486
1037 1 13.9655 7.1208 3.68333 -0.763469 1.50505 -1.49522
1041 2 17.2685 7.15546 3.77199 1.97212 2.66688 0.422725
83 2 17.4246 5.5398 1.94073 -2.67556 -2.68953 -3.48202
78 2 15.7585 5.55301 0.121306 -0.559977 -0.774443 1.71512
1038 1 15.6492 8.72505 3.63939 -0.377092 1.87743 2.21628
141 1 17.4369 7.17663 -0.138971 -1.65055 -1.7791 9.49156
87 2 21.0568 5.26548 1.77947 4.56132 -1.42663 2.81641
144 2 19.4082 7.01651 1.68419 2.8765 -3.4955 4.98913
982 1 19.0919 5.46175 3.59931 3.37735 -6.68135 1.02471
1045 1 20.9795 7.04077 3.52588 1.80737 -0.0223004 0.3802
145 1 21.058 7.18111 -0.110216 -1.2067 -0.186875 3.86627
82 2 19.2752 5.33376 -0.116778 9.05198 -2.71957 -1.78697
91 3 24.76 5.61328 2.04527 -1.25845 -6.25005 5.11117
148 3 22.8462 7.15053 2.06573 8.87838 0.0988291 -1.08419
986 3 22.8605 5.25888 3.65871 1.12923 1.02518 -3.40622
1049 3 24.6068 7.03433 3.81969 1.55203 -10.4031 -1.27475
86 2 22.8527 5.23728 0.0378834 -1.31969 -3.94172 5.50997
149 2 24.5098 7.09082 0.101853 -4.22485 0.411907 1.34558
152 3 26.5593 7.2113 1.98888 -2.45812 2.7227 4.0088
990 2 26.5426 5.29929 3.75084 -3.13675 -3.09049 2.71518
90 1 26.3124 5.42118 0.210763 0.366221 2.383 0.621462
1046 2 22.8459 8.79396 3.80397 4.00997 2.30237 3.4047
127 3 3.13615 9.02087 1.77802 -3.20137 -3.00068 -4.07677
1022 3 1.25563 9.20889 3.51946 2.87428 3.1958 0.738802
122 1 1.30311 9.01995 -0.007514 -2.58724 0.471657 -2.73076
184 2 1.51478 10.9141 1.85582 3.0106 -0.954094 2.53538
187 1 3.12547 12.4992 1.75439 -1.55023 1.5414 3.14981
1082 3 1.37404 12.4591 3.56242 5.16604 0.115307 0.490813
1085 2 3.42152 10.9103 3.6032 3.30621 -5.94957 -4.51139
182 1 1.30447 12.5442 0.0575254 0.816908 2.99041 -0.709932
185 2 3.18228 10.7928 -0.0289734 6.34268 3.32759 -0.826475
131 2 6.7891 9.13139 1.93007 -1.76803 -2.81941 5.10851
126 1 4.78777 8.89099 -0.103724 -2.9074 -1.70897 5.02387
130 3 8.61982 9.1167 0.140899 1.75565 5.64662 -0.384673
1030 1 8.62039 8.84324 3.67386 2.08674 2.08577 0.157404
1026 3 4.67655 8.88696 3.7914 3.38196 0.772764 -4.10287
188 1 5.0127 10.761 1.93507 -4.84096 -2.78532 -3.59716
191 3 6.76152 12.6198 1.60451 1.13166 -0.288228 -1.92845
1086 3 4.91384 12.4688 3.61125 -7.16658 2.62113 -6.72281
1089 3 6.92068 10.5665 3.57401 -2.40424 -9.58804 -2.44332
186 2 4.96288 12.4208 -0.133006 -11.0532 -0.689711 -4.43705
190 2 8.60932 12.785 -0.0929682 0.377491 -4.10045 3.5434
189 3 6.80059 10.6946 -0.144045 -3.65715 4.83334 -5.45184
1090 2 8.62273 12.5824 3.55305 -4.44374 -5.58494 -1.66919
192 1 8.55191 10.9023 1.86553 1.41131 1.15245 -2.03013
135 3 10.5202 8.81804 1.51906 -1.92568 6.30102 0.31016
1034 3 12.3951 8.9175 3.61198 -2.04133 3.14998 4.14883
195 3 10.4043 12.5558 1.81829 -0.771119 -4.0002 -0.181864
196 1 12.1877 10.8176 1.86094 -4.57597 0.737964 -0.384101
1093 2 10.502 10.5462 3.58459 2.93518 4.96432 -4.4435
1094 3 12.1571 12.7398 3.51022 -3.0173 1.95419 -4.83311
193 2 10.503 10.9303 0.0456873 -3.62579 -6.86761 6.28397
194 1 12.1398 12.5419 0.132611 1.91801 -3.80301 6.35952
134 1 12.187 9.0474 -0.13126 0.467502 -2.24089 9.58125
143 1 17.3725 8.90877 1.83132 -2.0963 -2.15602 -3.68888
139 2 14.0026 9.07983 2.05612 0.281914 0.607684 -3.64872
199 2 13.9532 12.5445 1.87677 -4.82984 -4.07011 0.211845
200 1 15.4726 10.9815 1.91915 4.82715 -0.287169 -1.25428
1097 2 13.7237 10.7924 3.65999 -4.95361 -0.662391 2.41765
1098 1 15.6484 12.5383 3.75002 1.25983 0.536809 3.31114
197 2 13.9128 10.7504 0.134064 0.0469938 -2.85178 1.79079
1101 2 17.3297 10.7923 3.6394 -1.014 -1.93734 -3.30261
203 1 17.3794 12.5256 1.71085 1.38634 2.51336 -5.18725
138 2 15.6549 9.00338 -0.021999 -12.3371 0.779434 0.113034
198 1 15.7649 12.3166 0.0246131 1.53902 0.728452 7.22936
1042 3 19.0676 9.11942 3.57416 2.12145 0.226884 -1.80205
142 1 18.9689 8.8471 0.086926 6.24307 0.221589 1.36114
147 2 20.9137 8.8279 1.73276 1.54635 0.498506 -5.10325
204 2 19.3025 10.7731 1.85286 1.79649 4.22481 1.57094
207 2 20.7877 12.4386 1.96292 -5.05595 3.34407 -1.61198
1102 1 18.9809 12.345 3.57553 -2.55991 1.34385 -0.42482
1105 1 20.9578 10.7842 3.64974 -5.01279 1.65138 0.195024
202 3 19.1669 12.529 0.0721417 2.18711 1.37969 2.72587
205 1 20.9718 10.7284 0.115636 0.200216 0.910454 -3.1676
151 3 24.5688 8.92141 2.02938 2.58974 -3.78364 2.36014
146 3 22.8422 8.89492 0.179757 -3.05965 -7.35397 -1.00962
1050 1 26.5172 9.00978 3.80795 1.78205 -3.87431 1.10056
208 3 22.6709 10.605 2.1095 -1.54975 2.27274 -6.28086
211 1 24.6723 12.5706 1.96894 -1.44888 3.85822 1.83618
1106 2 22.9398 12.4915 3.81057 -3.94239 4.30094 0.374381
1109 1 24.6515 10.9167 3.81107 -6.02194 3.59417 0.170158
209 1 24.488 10.7146 0.210532 5.01014 1.91584 2.13062
206 2 22.9876 12.3933 0.146823 1.93006 -0.259747 4.09133
210 2 26.4765 12.5543 0.0210256 4.84227 1.00897 5.93258
1110 2 26.5602 12.7358 3.65229 1.49392 2.30343 3.47951
150 3 26.6395 8.96923 0.0450961 5.32342 -1.22046 -1.66997
212 2 26.3103 10.9191 2.09218 3.67207 5.81305 9.63113
244 2 1.31307 14.2639 1.74764 5.25398 1.43298 -1.36495
247 2 2.85678 15.8073 1.82727 -2.51808 7.12073 -0.294268
1142 1 1.35929 16.0083 3.62366 2.19339 0.314487 -1.22497
1145 2 3.05015 14.1517 3.69811 4.79252 -0.159463 -4.78548
245 1 3.03535 14.3307 -0.0547228 -0.873122 1.18378 2.88242
242 1 1.44627 16.2121 0.070133 -6.95051 1.67001 5.08705
248 1 4.80273 14.2752 1.78238 -6.9243 1.96508 -0.877841
251 2 6.36918 16.1147 1.89938 7.11257 -1.78547 -0.0941255
1146 3 4.76593 16.0643 3.48914 2.91515 -2.40624 -0.679101
1149 3 6.54891 14.2978 3.58895 -4.24742 -2.33575 -0.180229
250 3 8.513 16.1679 0.0111546 4.88329 2.30684 3.86146
1150 1 8.25944 16.188 3.56195 1.65614 0.636002 6.13534
252 3 8.33825 14.4001 1.88236 2.16153 0.387078 -0.717458
246 3 4.78398 16.2574 0.144477 3.06258 -2.10144 -2.71623
249 3 6.58068 14.4566 0.104947 2.34551 -4.28885 0.247449
255 3 10.1316 16.1274 1.79913 -5.34632 -2.11121 -3.22005
256 2 12.0638 14.6377 1.78685 -2.10869 0.412683 3.91602
1153 3 10.3364 14.3688 3.53399 1.41946 -0.661179 5.06678
1154 1 11.9227 16.0664 3.58813 0.434102 -3.72786 -3.67246
253 3 10.2902 14.4149 0.130097 -0.813783 -3.53976 0.380351
254 3 11.8343 16.1734 0.036421 -3.42635 -0.512167 1.91519
259 3 14.1058 16.1695 1.73468 -1.03965 -0.638636 1.81948
260 2 15.4862 14.1524 1.78898 6.8151 -0.628937 2.77773
1157 3 13.9443 14.4989 3.50377 0.501971 -6.68465 0.978866
1158 3 15.7683 16.0298 3.67452 -1.60935 -2.30438 0.417487
263 3 17.571 16.0437 1.65349 -5.75264 -0.563744 -4.93407
1161 3 17.392 14.2662 3.7708 -0.419824 -0.88503 3.93023
257 3 13.7174 14.2574 0.0413802 3.13038 5.12731 -5.38239
258 2 15.6634 16.2175 -0.139897 -2.27715 4.49684 2.52884
264 3 19.1812 14.3461 1.92597 -1.06792 -0.0267024 0.222984
267 3 20.6293 16.4251 1.75296 3.80689 -1.7243 -0.212218
1162 3 19.1571 16.1798 3.77539 4.73514 0.228028 -3.27677
1165 3 20.7893 14.2965 3.5582 -0.652142 -1.58348 5.02889
262 2 19.1023 16.3309 -0.0663373 -5.6283 -0.577355 3.62929
265 1 21.4643 14.2909 0.0404065 3.72705 8.44853 1.34605
268 1 22.969 14.1088 2.10048 -0.123788 9.04776 -0.871773
271 3 24.5202 15.9128 2.05237 3.69304 -0.762089 5.49455
1166 3 22.5042 16.1115 3.57438 -2.56113 5.83915 -3.00363
1169 2 24.7408 14.3529 3.82348 -3.04337 -5.31169 -4.94337
269 3 24.5422 14.3398 0.0177767 0.32157 -2.13044 -5.7765
270 1 26.4036 15.9889 -0.125877 -0.439301 -1.44104 0.528259
266 3 23.0359 16.144 -0.0464116 0.165684 0.943739 -2.18912
1170 1 26.4445 15.9232 3.51894 3.72861 6.84693 3.17801
272 2 26.4067 14.2311 1.69095 -1.67708 2.14538 -5.15706
304 3 1.20357 17.8479 2.00959 2.57003 4.0474 -0.513427
1205 3 3.0101 17.827 3.58994 4.49508 -3.79281 -1.37519
307 3 2.85674 19.6192 1.77871 4.57452 2.30161 -3.81174
364 2 1.40408 21.5723 1.93063 -0.966587 4.13044 1.07422
1202 1 1.44075 19.7537 3.7471 0.215277 0.870896 -1.45941
1265 3 2.98512 21.599 3.76233 1.53398 -3.53116 -5.83672
302 3 0.987459 19.6093 0.0823836 -7.09633 -2.40845 -6.09102
365 3 2.8471 21.6348 -0.000655934 1.45647 -7.71131 3.33237
305 3 2.96139 18.0051 -0.0387552 0.152315 -4.45838 9.40156
1209 2 6.55887 17.9878 3.4828 -2.00483 -1.93315 -2.58697
312 3 8.40099 18.019 1.88996 2.87254 -5.45571 2.52027
309 3 6.61067 18.013 -0.0197376 2.83886 1.6276 -1.1337
308 2 4.90494 18.2689 1.65216 -3.49685 -1.61903 -3.79825
311 1 6.74445 19.7939 1.88531 -1.9826 0.487096 1.8162
368 2 4.84212 21.4861 1.82571 -2.332 7.30897 -0.688964
1206 1 4.57354 19.6888 3.52166 7.02844 -3.1273 4.91732
1269 2 6.4871 21.5136 3.84366 -0.189537 1.82553 -2.35208
372 2 8.50922 21.828 1.91298 -2.82292 0.598012 -7.27128
369 1 6.50463 21.3757 0.288759 -1.64738 4.48219 3.0326
306 1 4.77383 19.8473 -0.0775548 -2.73017 -0.137001 0.435642
1210 3 8.44477 19.8193 3.7709 1.55693 -4.62125 0.923073
310 3 8.52052 19.7374 0.0734354 1.40759 -0.908743 -0.468994
313 3 10.1421 18.0808 0.239384 -4.50171 -3.03176 0.916061
1213 2 10.1709 17.9519 3.72854 -2.22894 -4.25514 -3.72928
316 3 11.9651 17.933 1.99811 5.57646 -2.54174 0.431399
315 2 10.3306 19.9574 1.98876 -3.52539 -1.59139 -1.9326
376 2 11.9284 21.5783 2.0218 2.40058 3.35532 -1.05584
1214 1 12.0226 19.7759 3.57061 -2.24932 0.538272 -0.793374
1273 1 10.3298 21.6415 3.74483 3.34437 -2.67842 -3.00587
373 1 9.92595 21.5766 -0.0773026 -0.309739 0.388317 -4.71289
314 3 12.2084 19.8762 0.0766316 0.450838 0.156663 1.94699
1217 2 14.0181 18.0286 3.60021 -0.155038 5.18768 0.650845
321 1 17.4504 17.928 -0.0993517 -2.93034 -0.845678 2.06014
320 1 15.7383 17.8344 1.91734 -4.26394 -2.78493 -0.671443
1221 2 17.4782 17.8633 3.75138 -3.14593 -2.64644 3.43645
317 2 13.7898 17.9059 0.210798 -1.97518 3.01818 -1.55163
319 1 13.7119 19.6865 2.09938 2.48195 -0.519325 -1.60592
380 2 15.6522 21.713 2.01963 3.9864 -2.21212 4.08253
1218 1 15.8063 19.7876 3.38463 0.599598 1.33241 -2.71963
1277 2 13.9881 21.6892 3.72422 -5.4873 -3.95829 -2.10312
377 1 13.8983 21.6317 0.244096 -2.67285 2.30696 -0.690842
381 1 17.2332 21.7691 0.0932277 3.16173 -4.07172 1.58012
323 2 17.3986 19.8944 1.58452 -0.441691 -4.69618 2.5472
1281 1 17.3112 21.5714 3.80454 2.02976 3.2131 -8.04671
318 2 15.5335 19.6992 0.349707 -1.3993 0.865759 3.6206
1225 3 21.0607 18.0954 3.66943 -2.03215 -0.993066 -0.116856
324 1 19.1075 18.2697 1.69003 1.86755 -0.203816 -0.96408
327 3 21.1221 19.7954 1.64157 -3.00999 -2.16715 1.21578
384 2 19.1023 21.4775 1.83993 0.160686 4.13738 3.38335
1222 3 19.2791 19.6926 3.51981 -0.16878 4.44326 -2.39412
1285 1 21.2218 21.3658 3.51751 -3.09941 -1.56254 8.12668
322 1 19.245 19.9613 -0.0879011 2.74433 -4.41207 2.47175
385 2 20.9724 21.604 -0.0610526 3.21138 1.52536 -5.43933
325 3 20.8879 17.8487 0.0480741 -1.24519 -0.0494214 -0.415179
328 3 22.9434 17.9665 1.94382 7.64951 -1.67867 -1.87121
1229 1 24.732 18.1543 3.71499 8.70986 -5.04188 -0.813622
331 1 24.6814 19.9192 1.93601 -2.60745 -3.85864 2.69644
388 3 22.9592 21.4633 1.70729 -1.3907 -2.59702 2.48927
1226 2 22.945 19.8221 3.69385 2.67925 4.54971 6.39655
1289 1 24.5061 21.5955 3.6129 -4.48534 6.82648 -2.44097
392 2 26.5192 21.2919 1.79957 -1.03765 2.67332 5.62008
389 3 24.6799 21.4304 -0.0840542 4.66642 1.40704 -0.579839
1230 2 26.2899 20.0546 3.89226 -0.079113 -2.88257 -3.72495
332 2 26.4871 17.978 1.83514 2.29002 -0.369426 -0.318563
329 2 24.6791 18.0292 0.0746097 -0.809541 1.99496 -1.9827
326 1 22.8161 19.6121 0.0721427 -4.23105 -1.93592 2.92493
330 2 26.3497 19.6165 0.167982 -0.600704 -4.47555 2.04071
367 1 3.06821 23.4482 1.72191 1.61997 11.9939 -0.963743
424 1 1.16855 24.8707 1.6729 -1.96986 2.66775 3.59727
1262 3 1.12572 23.2986 3.85437 -6.72434 -3.69512 -4.12542
1325 2 3.02532 25.1345 3.40196 6.99509 -1.16974 -0.756187
362 2 1.361 23.495 0.00816364 4.78285 -0.188823 -1.1045
425 1 3.07663 25.1138 -0.0503719 -9.18915 7.09018 -2.98498
371 1 6.50041 23.2738 2.1363 -9.52336 -4.66823 7.5472
428 3 4.82139 25.0156 1.96127 -0.416759 -1.90419 -2.16332
1266 3 4.74796 23.3219 3.71701 -0.791038 -3.42342 -0.0518995
1329 2 6.72925 25.1201 3.6572 -7.32387 -4.36682 -4.40436
1270 1 8.38144 23.1714 3.68147 -6.05157 -0.0800947 1.78371
366 2 4.88932 23.3483 0.164951 -2.19485 -1.01551 -5.85094
429 2 6.72115 25.2642 0.164 1.63415 -1.6226 -1.41052
370 2 8.50963 23.363 0.0847018 -4.21857 -1.01054 -1.26416
432 3 8.49465 25.0525 1.87486 -1.6943 0.885483 0.998804
1330 3 8.49777 26.711 3.58832 2.61927 0.748385 -0.172354
375 1 10.3337 23.4398 1.7764 0.183167 0.20265 4.698
436 2 12.2219 24.7985 1.94625 1.54631 5.6494 -2.73847
1274 3 11.9165 23.2969 3.75765 1.06068 -7.13636 -3.36196
1333 2 10.1375 24.9845 3.80999 3.97547 -4.59685 5.18134
374 3 11.9862 23.3611 0.1275 2.55215 3.5189 -2.25341
433 2 10.1978 25.0705 -0.0388383 1.81852 0.317561 0.846001
435 1 10.4079 26.5127 1.97306 1.07797 -0.0600192 1.35794
379 1 13.8931 23.2465 2.06915 5.44102 -5.19738 2.05155
440 2 15.5302 25.2893 1.98785 -2.96447 4.95003 -2.89035
1278 1 15.3384 23.413 3.73919 -0.599281 -1.02427 -3.79907
1337 2 13.5575 25.1083 3.76311 1.25703 -7.42193 0.823256
378 2 15.5834 23.513 0.120339 2.38815 0.673238 -3.87584
1341 2 17.3536 25.2567 3.48278 -0.72977 -2.01286 3.88147
383 1 17.593 23.5299 1.9712 -1.49031 4.36668 -1.11177
441 1 17.5238 25.154 0.145051 -2.45076 0.536111 -0.958679
437 3 13.8437 24.9431 0.221087 -0.946493 3.88432 1.35881
439 1 13.8142 26.7159 1.91396 -6.27846 1.11028 -5.4621
438 1 15.6457 26.7282 -0.0290839 -0.248024 -2.12813 4.39603
387 1 20.8997 23.212 1.7681 -1.1279 2.98037 1.71639
444 3 19.5005 25.2359 1.8123 -1.84365 0.977367 0.825507
1282 3 19.2731 23.2916 3.61527 -3.01088 0.427311 1.52515
1345 2 21.1091 25.0606 3.76005 -1.04626 5.14126 5.223
382 2 19.3997 23.5307 0.102865 2.38555 3.40071 0.755276
445 1 21.2322 25.2445 0.139958 1.51493 1.38854 -2.00345
391 2 24.7035 23.2809 1.84195 -5.71471 -2.70587 5.50607
448 1 22.8063 25.2595 1.67469 -2.98437 4.03626 -3.36216
1286 2 22.7995 23.3971 3.3778 2.88479 1.54092 3.8859
1349 3 24.627 24.8564 3.62588 -0.436143 5.96045 0.632788
1290 3 26.5153 23.2063 3.71308 0.276675 1.15274 5.26008
452 3 26.4056 25.0451 1.91483 -3.55274 -2.02799 -2.55722
386 3 23.0316 23.1691 0.0274465 8.01626 2.67132 -2.65072
390 3 26.6025 23.036 0.1919 1.74889 -0.501726 -3.41184
449 3 24.8328 25.1122 -0.029122 1.39165 1.23248 -2.29514
446 2 22.8518 26.704 -0.118545 2.52198 2.97343 -2.39441
907 1 3.29183 2.00622 5.59687 -2.85148 1.47047 3.60247
964 1 1.15973 3.57441 5.45046 -2.30259 1.90041 -3.40023
1802 2 1.32911 1.79389 7.30991 -7.11178 1.47613 -1.3716
1865 3 3.05836 3.80422 7.53442 3.00993 -1.19324 1.59588
1805 2 3.36958 -0.0280726 7.16113 7.55531 4.22258 -5.14151
911 2 6.78961 1.76067 5.35195 -0.54064 -8.27171 -2.19031
968 2 4.56763 3.82039 5.38385 -3.75527 -1.88379 2.76346
1806 2 5.00387 2.06115 7.06199 -1.66676 -7.49384 0.753604
1869 1 6.64574 3.62464 7.1694 6.43587 2.60164 4.43349
1810 1 8.55137 1.97678 7.25418 4.46852 -4.34 -3.70659
972 2 8.59465 3.90518 5.46823 1.02563 3.25129 -0.458142
1809 2 6.95844 0.105922 7.23637 -5.63565 1.18887 4.32429
908 1 4.98296 0.205775 5.34661 -0.40157 -1.30077 0.700242
1808 1 4.96596 0.0511131 8.74868 0.638824 -5.11081 6.48883
1813 2 10.2423 0.158884 7.30272 -1.56557 3.23021 0.440846
915 1 10.1605 1.61374 5.44059 5.26638 0.173192 -1.9831
976 2 12.0342 3.61951 5.26475 1.62924 -1.7473 0.280441
1814 1 11.951 1.83735 7.2063 4.17142 0.475557 6.07827
1873 3 10.5359 3.73964 6.99508 1.92882 -2.13797 -8.72522
916 3 12.201 -0.0715397 5.4768 0.453308 -3.79109 -1.95074
1817 3 13.8066 -0.0258274 7.28378 -0.966519 1.00613 -0.717524
919 3 13.7499 1.68105 5.57061 13.1606 1.68824 -6.92711
980 2 15.4512 3.59923 5.67521 3.62511 -1.18013 -3.00915
1818 3 15.7688 2.00182 7.44701 -1.35629 2.27927 -0.89206
1877 1 13.8312 3.62368 7.14294 -2.27246 -2.48842 1.727
1881 2 17.4268 3.65009 7.2569 -2.77945 0.142592 -0.355602
1821 2 17.3233 0.0290668 7.29872 -2.94698 1.10254 -0.928225
920 1 15.7629 0.0478241 5.58569 -5.86143 -4.63744 -5.5515
923 3 17.438 1.80163 5.44597 -4.55733 -2.46272 -1.51988
927 1 21.0831 1.86462 5.51246 0.846982 -3.40959 -0.284386
984 2 19.1454 3.68976 5.58175 -4.53705 5.41032 -1.91577
1822 3 19.2335 1.82615 7.24811 -3.63714 -2.34896 -1.53189
1885 2 20.9152 3.49794 7.06727 5.02397 -2.73911 2.94471
924 3 19.0252 0.239233 5.44848 -1.56201 -0.751471 4.12161
1825 3 21.0761 0.287225 7.08615 1.00544 0.856703 -0.603372
931 2 24.5729 1.71327 5.55916 -1.6904 -3.71787 -0.97518
988 3 22.8584 3.61529 5.43279 -0.965583 7.27045 -5.61752
1826 3 22.8861 1.72889 7.27175 4.39313 3.31364 1.4749
1889 2 24.5827 3.53384 7.61614 -0.0938427 -0.657019 -0.094047
1830 1 26.4205 1.78733 7.3927 -1.60686 4.24815 -0.995013
992 3 26.2443 3.54251 5.74842 5.77471 2.41731 -1.41021
1829 2 24.6712 0.0948521 7.22547 5.20475 -3.53285 0.379998
928 3 22.872 0.0032566 5.37954 2.21669 -0.190362 1.91842
932 3 26.4958 -0.16227 5.57982 -0.512402 -4.56515 -3.17012
967 3 2.62568 5.47156 5.575 2.96841 0.633298 7.25214
1024 3 1.31918 7.26711 5.42254 -1.09853 -0.36115 -5.45248
1862 2 1.0653 5.39042 7.4211 -2.21965 -0.661682 1.05138
1925 3 3.04304 7.17615 7.36208 1.03931 -0.923943 -0.535059
971 2 6.82307 5.50842 5.40169 3.03078 -6.2297 -1.64947
1028 2 4.91879 6.98057 5.28295 -2.00515 1.25988 4.28465
1866 1 4.81572 5.39402 6.87309 -3.86382 -3.48076 -0.243827
1929 1 6.4591 7.14119 7.14262 0.64901 -0.224364 0.923515
1870 1 8.70866 5.51071 7.08111 -1.88228 -2.96852 -1.12726
1032 2 8.40394 7.14089 5.36924 -4.1785 -3.74157 -4.32127
1031 1 6.77201 8.73541 5.44035 1.38442 1.73452 -0.833549
1871 2 6.72633 5.35084 8.77138 0.414614 5.0781 -6.00669
975 1 10.4086 5.32507 5.12094 1.15624 0.281217 2.78314
1036 1 12.0778 7.2415 5.52948 5.37887 4.50221 2.01483
1874 2 12.0892 5.59489 7.16482 -1.37937 -1.31235 -0.253078
1933 1 10.3699 7.09009 7.12439 3.0968 -4.33716 -1.95069
1035 2 10.373 8.73624 5.56288 2.61546 -0.556226 1.7836
979 1 13.6307 5.1814 5.16728 -1.18191 0.449742 -4.14951
1040 2 15.4184 6.75323 5.33642 -1.06089 -2.2916 -5.24749
1878 1 15.493 5.2204 7.37574 4.17363 -1.68923 1.36922
1937 2 14.0141 7.01495 7.27564 -2.19636 -2.26053 5.19184
1941 3 17.2903 6.96885 7.07926 9.53503 2.83974 -4.21431
983 1 17.2576 5.03547 5.35604 -0.792167 -1.12159 -6.1878
987 3 20.9433 5.2862 5.44801 -2.37665 1.91888 0.725029
1044 2 19.245 7.14099 5.20123 -2.7531 2.23889 -7.93572
1882 3 19.1978 5.49356 7.34377 -1.57572 -0.479447 -1.16889
1945 3 20.9134 7.0801 7.22597 -0.468653 -3.91734 -5.85293
1942 2 19.0211 8.70885 6.949 -0.485725 8.59179 -1.05605
991 3 24.6319 5.2664 5.64238 -1.4174 0.85583 -2.37224
1048 3 22.5657 7.11193 5.40275 -4.54832 -1.19791 1.05297
1886 1 22.934 5.21283 7.17552 -1.95548 1.63692 2.24564
1949 2 24.5185 7.31038 7.2479 -1.38755 -4.53282 0.0112173
1052 3 26.2301 7.14319 5.3402 0.95723 0.816866 -1.02123
1890 2 26.5445 5.45201 7.49261 -4.62555 4.22536 -2.12656
1027 3 3.01185 8.98347 5.44883 -1.59248 1.9348 -3.81212
1922 3 1.34178 9.05256 7.26219 -5.31423 -3.50131 5.28169
1084 3 1.47134 10.8434 5.38402 2.05179 0.00553931 -0.602047
1087 1 3.20503 12.6283 5.40416 5.69824 -5.20766 2.02088
1982 2 1.43507 12.4907 7.31676 -1.90218 -0.469289 0.439425
1985 3 3.17863 10.9745 7.11877 -1.39138 0.467609 1.74075
1930 2 8.51264 8.96346 6.9476 1.48957 7.71976 1.7206
1926 1 4.76781 9.043 7.18567 1.3084 -0.995344 1.87266
1088 2 4.82389 10.6857 5.57858 -2.08879 4.3472 -6.51633
1091 3 6.62752 12.579 5.20618 0.26297 5.91107 2.61246
1986 3 5.01885 12.4831 7.11635 2.21678 0.906347 0.0687069
1989 1 6.86706 11.1231 7.19242 -1.47209 -1.71693 0.957529
1092 3 8.58038 10.7983 5.19458 0.0159216 3.35051 3.42765
1990 2 8.84503 12.6886 6.82922 5.19148 -2.57175 5.62918
1934 2 12.1286 8.98401 7.37374 2.97043 5.95978 -3.44096
1095 1 10.4813 12.3203 5.29006 1.78229 4.73348 -0.202068
1096 1 12.1532 10.5421 5.70827 1.65923 -5.68081 1.12827
1993 1 10.3006 10.8628 7.18311 2.40078 -0.885681 1.52089
1994 2 12.0991 12.6217 7.2413 -0.682985 2.20271 -0.292094
1043 1 17.1811 9.01297 5.5188 2.06554 -3.093 2.71275
1938 1 15.8014 8.86553 7.30697 -5.4455 -0.0261551 2.64397
1039 1 14.0313 9.04979 5.37415 1.17418 3.27342 -4.13209
1099 3 13.9398 12.6087 5.43234 7.48899 3.79196 2.46581
1100 2 15.6796 10.9766 5.47137 -1.19673 4.17997 2.34217
1997 2 14.1662 10.7276 7.24208 1.56496 0.527936 -3.98699
1998 1 15.8005 12.7628 7.1922 2.23666 0.561006 4.82648
2001 3 17.3897 10.6668 7.14266 3.57997 0.145634 3.91943
1103 1 17.5373 12.4551 5.44459 -1.06776 7.17386 -2.96007
1047 1 20.8686 8.88061 5.08808 -0.738669 1.92734 -1.29409
1104 2 19.3514 10.5885 5.49322 -6.97334 -5.90142 4.54206
1107 3 20.9618 12.5032 5.5844 -3.3422 -2.29137 0.476631
2002 3 19.0613 12.7545 7.2591 -2.13042 4.48299 1.88875
2005 1 20.9291 10.387 7.03184 1.31649 0.758033 -2.248
2004 3 19.4103 10.8171 8.70541 0.946677 3.60346 -3.51044
1950 1 26.4922 8.83829 7.18147 -3.98937 2.55366 1.9473
1946 2 22.6959 8.98853 7.30559 -3.80392 -1.61867 -3.03638
1051 3 24.7002 8.96238 5.47219 -1.75187 -2.07686 -1.05913
1108 2 22.7225 10.7992 5.51717 1.62127 -4.19819 0.530124
1111 1 24.8017 12.7453 5.39184 -3.11526 -0.900112 -2.38247
2006 1 22.8652 12.6417 6.94535 -0.710126 -1.41565 -0.00959289
2009 2 24.7235 10.9034 7.22214 6.1183 -2.34882 -5.6076
1112 2 26.4336 10.8668 5.61607 -0.366598 -2.70269 2.89507
2008 2 22.7165 10.8811 8.59204 -2.75496 2.97556 -1.42265
1144 3 1.27917 14.2112 5.48793 0.959837 1.6823 -1.98666
1147 1 3.17381 15.9301 5.382 2.79882 -0.716367 -1.36456
2042 2 1.42849 16.0148 7.05739 -6.31375 2.62675 1.50281
2045 3 3.08731 14.3249 7.37942 -3.27066 3.71612 4.33311
2105 1 3.04895 17.5556 7.34072 3.48306 -5.15677 -0.494688
1148 2 4.95467 14.533 5.33562 -1.805 -0.0728197 2.48799
1151 2 6.46954 16.1582 5.51837 -0.567545 1.81144 4.06306
2046 3 4.85477 15.9235 7.26504 3.49288 5.43902 -0.881439
2049 1 6.76798 14.3924 7.08474 -0.636291 4.65839 -3.04226
1152 3 8.50303 14.3828 5.18946 -0.183543 -1.02147 -2.74158
2050 1 8.57824 16.1009 7.35936 -3.55323 -2.69591 -10.9709
2052 1 8.73667 14.1111 8.76392 3.45577 -4.61062 8.56215
1155 2 10.0766 16.1477 5.38068 0.721073 3.04404 1.75983
1156 1 11.9811 14.3138 5.45377 4.12931 -2.64168 -0.372761
2053 2 10.2698 14.5282 7.14925 -7.04753 7.21059 2.6305
2054 3 11.9782 16.0948 7.10276 3.19534 1.33645 -0.641712
1159 3 13.9147 16.1013 5.50227 2.27148 -4.38039 3.41062
1160 2 15.8911 14.2791 5.4246 3.45676 -0.445467 5.75012
2057 2 13.7096 14.4405 7.28274 4.454 0.0474507 -2.24913
2058 3 15.5132 16.1915 7.16167 -0.723695 1.99252 -3.61092
1163 3 17.7132 16.0145 5.66045 1.88104 0.0176748 3.35251
2061 2 17.4197 14.3067 7.30512 -3.09273 3.80276 -5.3721
1164 3 19.1873 14.2804 5.37689 5.5057 3.51812 0.974649
1167 3 20.8387 16.5354 5.63611 1.27276 2.06499 -6.19685
2062 1 19.2601 16.1487 7.56244 1.83387 5.15007 -3.16411
2065 3 21.1075 14.7142 7.27034 1.14549 2.38361 -1.24919
1168 3 22.7176 14.6959 5.50047 -4.77301 3.7325 -1.39934
1171 3 24.5662 16.4274 5.30494 3.2851 -0.182902 -0.410785
2066 3 22.7422 16.3211 7.29534 2.65115 -0.965716 -2.05876
2069 2 24.4599 14.4872 6.91673 7.54032 4.34471 -6.26723
2070 3 26.3991 16.1365 7.24873 -0.29442 -2.24626 0.542365
1172 1 26.4784 14.484 5.59846 3.71877 1.05451 -1.47141
2072 3 26.2183 14.4404 8.78524 -2.30714 1.41177 7.23391
1204 3 1.49417 17.9346 5.461 0.274403 2.13408 -7.60106
1207 2 3.02229 19.6728 5.50254 -0.808638 0.0758378 -2.52217
1264 3 1.20589 21.4834 5.64566 4.04578 0.607324 -1.93113
2102 3 1.30249 19.6799 7.3874 4.67792 4.34397 -6.26593
2165 1 3.03825 21.468 7.49454 -2.50286 -7.70731 -0.772679
1208 2 4.58491 17.8707 5.53746 -6.76655 8.29596 1.18435
2109 3 6.63144 18.068 7.28814 3.26793 -2.56873 3.99739
1211 1 6.20142 19.3855 5.36261 2.99311 0.266544 5.36329
1268 2 4.95532 21.3323 5.68469 -1.25541 -4.05092 0.287487
2106 2 4.98047 19.7057 7.53125 0.63238 2.91414 1.16103
2169 1 6.56776 21.5284 7.46418 -1.33919 -2.23503 -0.20428
2110 2 8.47099 19.6186 7.2058 2.58767 7.64381 -3.61673
1272 2 8.27842 21.3367 5.69337 -3.64495 3.06963 0.282495
1212 3 8.41142 17.8586 5.40258 -3.95127 -0.515682 0.203407
1216 3 11.8252 17.8701 5.41724 5.01534 7.59026 3.89609
2113 1 10.1884 17.8997 7.09092 0.00125626 -4.8744 5.98374
1215 1 10.0854 19.7679 5.41997 -2.70876 2.02191 -2.2188
1276 2 12.0889 21.4341 5.55812 -1.92513 6.21417 -3.62343
2114 2 11.9486 19.7497 7.09996 -1.40317 -5.11196 -1.72814
2173 3 10.2433 21.3659 7.44621 -7.77321 -1.43812 4.10669
1220 3 15.7886 17.7807 5.455 -1.0609 -2.28906 -0.872861
2117 2 13.8851 17.8277 6.88972 2.63214 3.63643 -1.41291
1219 1 13.8558 19.4828 5.46497 2.56639 -3.61215 -4.28452
1280 2 15.6322 21.3393 5.52557 5.12423 -0.775366 -2.15992
2118 1 16.0178 19.5723 7.21292 1.42895 0.558293 2.15867
2177 3 13.8133 21.3483 7.06029 2.32691 1.22036 -1.00859
2181 3 17.5683 21.4953 7.24761 2.56336 6.43565 3.75652
1223 1 17.4705 19.9772 5.46261 1.0516 2.56996 -0.519595
2180 2 15.5734 21.3896 8.80085 4.62044 1.84797 5.60962
2121 3 17.8126 17.9348 7.25096 -0.0832424 0.0477397 -0.843696
1224 3 19.2703 18.1205 5.48335 -3.06965 7.23682 1.11974
2125 2 20.8666 17.9707 7.46041 4.28305 1.5219 -0.607497
1227 3 20.9037 19.8504 5.50885 4.13863 -3.18019 9.08536
1284 2 19.243 21.7435 5.27459 6.7154 -0.984067 -4.40601
2122 2 19.2708 19.6216 7.14825 -1.3921 0.339886 5.97826
2185 3 21.0441 21.3422 7.25134 -1.13954 -0.88047 1.84647
1228 3 22.7372 17.8839 5.47399 1.51624 -0.574487 -7.34309
2129 3 24.799 17.8088 7.08608 -8.72676 -4.01352 0.437734