ITEM: TIMESTEP
82800
ITEM: NUMBER OF ATOMS
13500
ITEM: BOX BOUNDS pp pp pp
-1.7672918589740050e-01 5.3696729185886618e+01
-1.7672918589740050e-01 5.3696729185886618e+01
-1.7672918589740050e-01 5.3696729185886618e+01
ITEM: ATOMS id type x y z vx vy vz
7 3 3.28651 1.77251 2.15006 -2.75339 2.00476 1.02453
64 3 1.39355 3.50122 1.87239 0.578736 1.13443 2.45836
902 1 1.2569 1.57816 3.81723 -4.36416 -1.15705 -6.43943
965 2 3.15956 3.56437 3.71573 2.99389 -1.51741 0.654629
2 3 1.45037 1.66563 0.0938579 5.00484 9.36664 -4.89936
905 1 3.19119 -0.0507291 3.77131 -0.598894 -3.77176 -3.83836
5 3 3.15681 0.000133705 0.118414 -5.01634 -0.107873 -2.01817
65 3 3.0379 3.4776 -0.0762172 -3.52273 -1.39829 -2.57903
4 2 1.36489 0.0728839 1.85278 -5.2619 5.95407 2.07851
11 3 6.84557 1.61577 1.84538 -5.93316 -0.255202 1.2337
68 3 5.04428 3.28728 1.88223 0.123241 -1.75331 3.00437
906 3 5.11173 1.65698 3.68659 -2.95956 0.684135 3.37407
969 3 6.58878 3.45101 3.62914 1.51202 -4.98616 5.88787
72 2 8.62305 3.54047 1.76157 2.10343 -3.8903 -1.06066
910 3 8.59466 1.77768 3.63965 2.24953 4.12559 2.77347
69 3 6.67483 3.51104 -0.117676 -5.95023 2.81993 -4.60232
6 3 4.85046 1.75569 0.049018 3.40656 5.74449 -1.83281
909 3 7.03705 -0.0695064 3.65529 5.50429 -2.7728 3.20427
10 1 8.72286 1.6212 0.136252 0.675577 -1.94825 -5.58123
8 3 5.07473 -0.104857 1.94955 5.99587 1.04753 -3.46066
9 2 6.72116 -0.0843835 -0.0671379 -1.82849 0.643102 5.32341
15 2 10.187 1.44653 1.84256 -5.31822 4.03528 -0.149396
76 1 11.8916 3.57332 1.48502 0.624476 1.95155 4.24529
914 1 12.2698 1.79375 3.55357 -3.35608 -6.30944 -3.3633
973 1 10.3511 3.44319 3.4099 -0.935491 -1.58211 3.89007
14 2 11.9544 1.66217 0.00345727 1.29277 4.36447 3.75672
913 1 10.2864 -0.169859 3.56665 0.233456 -3.00597 4.13964
13 1 10.3598 -0.0480627 0.0494993 -5.4102 3.91922 -1.12896
19 1 13.9147 1.91398 1.74142 3.04404 -6.9174 0.199974
80 1 15.919 3.77993 1.8821 0.605138 1.07525 -3.54586
918 1 15.9013 1.63474 3.50163 -0.338697 0.809346 5.82604
977 2 14.1113 3.45532 3.65341 -0.283917 -0.840368 0.160225
23 1 17.3942 1.74311 1.5584 -2.68714 -2.28622 1.83428
77 1 14.1419 3.55677 0.012471 -0.601421 0.0383475 0.591495
20 1 15.8292 -0.159489 1.62748 2.80056 -0.675547 1.83676
981 2 17.7348 3.54831 3.59206 4.05281 -4.97644 4.5908
17 2 13.6807 0.038687 0.302209 -0.962809 1.97466 -2.56091
18 2 15.5397 1.67729 0.0827518 -3.56081 0.971921 -2.57442
81 3 17.6316 3.41507 -0.0318662 1.70419 0.0545516 4.37831
921 2 17.6135 -0.0228432 3.56044 3.93754 2.61197 -9.23393
27 2 21.2945 1.56734 1.58425 3.75617 0.849413 2.04546
84 1 19.2043 3.35484 1.86875 3.63736 0.247513 0.203646
922 3 19.4405 1.55871 3.60989 2.66128 1.61737 -1.48825
985 3 21.1382 3.33442 3.40284 -0.544693 -5.7727 -9.38078
925 1 21.4607 -0.00122466 3.41902 2.33583 -5.36047 -0.54176
85 1 21.1332 3.44622 0.129506 -1.79572 -1.18616 -4.10692
24 3 19.2896 0.0325849 1.74638 0.100144 2.17518 5.11613
22 2 19.3595 1.72674 -0.146094 3.91305 3.24344 3.91423
31 3 24.7069 1.64578 1.70767 5.05425 0.415542 -1.30637
88 3 22.8672 3.42777 1.90981 2.91917 0.442811 6.11104
926 3 22.9611 1.80972 3.69248 -7.64624 8.51881 1.38157
989 3 24.764 3.59063 3.60867 -2.12354 7.02207 0.660998
89 3 24.6797 3.5329 -0.0216679 1.73445 1.92879 3.01306
26 1 22.9549 1.78143 -0.0304948 0.226927 1.00517 -8.02404
30 3 26.6212 1.70388 -0.0650248 -2.26153 0.90302 -0.77899
92 3 26.6217 3.37414 1.67378 -1.56572 -4.95156 7.77058
930 3 26.7028 1.74555 3.57247 -0.362306 -0.839296 -2.11781
28 2 22.8916 -0.109231 1.41225 -2.14117 -0.0641521 3.5398
929 3 24.8622 -0.0334464 3.43815 2.80492 0.186488 -3.6609
67 1 3.28253 5.30463 2.06068 0.212349 7.55065 1.20181
124 3 1.75951 7.13381 2.06215 2.10591 5.56834 2.38396
962 2 1.62746 5.22997 3.58396 4.45275 2.60837 7.59385
1025 2 3.4225 7.31102 3.72639 9.25517 -2.05865 -0.31599
125 3 3.23064 7.37842 0.108283 2.57217 1.4698 1.76174
62 3 1.49547 5.30599 0.380944 2.19496 -2.18736 -4.57534
71 2 6.69511 5.14721 1.88952 1.2875 -4.13191 -0.923163
128 3 5.22927 7.11921 1.78598 -0.733951 -4.42089 3.9448
966 3 4.99161 5.3132 3.58288 -1.35121 0.505782 4.32785
1029 1 6.84078 7.16058 3.50356 1.05378 -7.25386 -3.80501
132 2 8.66591 7.05919 1.54652 -4.11931 -2.92789 5.48971
129 1 6.66156 6.92347 -0.181365 5.20552 2.25673 -2.39697
66 3 4.8903 5.17912 -0.0224122 2.41895 -3.83997 1.81131
970 3 8.50812 5.4262 3.46904 -0.732624 0.592896 0.439862
130 1 8.6051 8.69412 -0.047804 -1.43494 2.86279 0.931986
131 2 6.92488 8.59483 1.79036 3.94164 -2.28612 -0.692525
1030 1 8.76006 8.63171 3.59463 -3.35502 -7.05692 3.51158
75 1 10.2948 5.39476 1.74768 1.62909 -1.18142 0.80758
136 2 12.2507 7.1141 1.62193 2.30329 -3.43449 -0.763
974 2 12.1281 5.16157 3.57614 -1.84799 -5.4174 -4.08366
1033 3 10.4328 6.97214 3.47927 -1.06822 0.0224148 -2.67057
133 1 10.5636 6.9822 0.00924966 -2.23709 -5.70892 -2.94953
134 1 12.0639 8.70416 -0.0739884 4.11778 6.84002 4.99175
1034 1 12.0567 8.7775 3.35001 -3.19357 -0.092076 -4.32672
79 3 13.9586 5.26435 1.90787 -1.02214 -4.70194 -5.52522
140 2 15.8089 6.99404 1.73507 4.15571 -1.64723 0.127676
978 1 15.7451 5.38808 3.74497 -2.96342 3.2174 -0.405977
1037 2 13.8975 7.02772 3.24091 -3.68321 4.35109 0.864622
83 1 17.6425 5.34075 1.92105 -1.16358 -5.7234 11.3372
1041 2 17.6943 7.05237 3.52856 5.02794 1.14628 -1.46296
78 2 15.9093 5.2496 -0.165965 -3.27107 -4.25767 -4.36378
137 1 14.0917 7.06655 0.036559 -0.330887 4.05628 -2.18303
141 1 17.7693 7.16 0.111434 -0.510922 1.60618 -3.66143
1038 1 15.7968 8.63046 3.42579 0.404246 1.24383 -1.85199
87 1 20.9353 5.31371 1.71444 1.91816 -1.78802 -2.2711
144 1 19.4694 6.97471 1.71522 3.61381 5.57486 -0.441344
982 2 19.5311 5.17615 3.80727 2.44755 0.770279 -4.88817
1045 1 21.1459 7.07667 3.45314 3.8681 0.853057 -6.49406
82 2 19.2944 5.18709 -0.0366936 0.202345 0.746675 -1.88316
145 3 21.3038 7.03242 -0.16827 5.35842 1.40574 2.42675
152 3 26.5004 7.0165 1.89271 5.84935 3.64353 -1.09048
91 3 24.6159 5.23798 1.79509 3.57793 7.40145 1.25515
148 1 22.9491 7.17618 1.60874 -0.552634 5.73252 -5.41447
986 2 22.8258 5.2097 3.37202 1.91773 5.10645 -2.20804
1049 3 24.6031 7.13635 3.43151 -0.587723 -0.00421926 1.57994
86 3 22.8832 5.17841 -0.0148428 -5.65436 -4.95709 -0.933869
90 3 26.5195 5.33378 0.00755049 -3.11857 -4.21323 0.624689
990 2 26.4697 5.2692 3.42283 -6.29202 6.30641 6.05232
1050 1 26.4916 8.76517 3.65612 4.74107 3.44914 -1.68468
151 1 24.7316 8.7732 1.57183 3.7171 0.679253 -1.55712
1046 2 23.0512 8.71914 3.58407 2.41827 -5.30706 -2.90974
122 1 1.38495 8.94722 0.120714 -3.28288 0.773188 -3.26535
1022 3 1.14533 8.99314 3.6594 4.24869 -7.24308 0.20384
127 3 3.24878 9.01495 1.96964 0.0689823 -4.24964 -3.76765
184 2 1.25647 10.5959 1.86345 1.46298 -1.10217 3.15356
187 1 3.04476 12.4772 1.99611 -0.639161 0.986353 -1.3445
1082 1 1.30639 12.6469 3.67797 2.63387 3.02416 -1.20811
1085 2 3.17716 10.7251 3.86185 3.98054 -7.18601 -1.77444
182 2 1.28318 12.54 0.042968 1.73905 -2.02719 2.00792
185 3 3.03521 10.8333 0.106879 7.3627 1.31426 0.0659551
126 2 5.049 9.00546 0.0195057 0.650342 9.03709 -1.26325
1026 3 5.1018 9.25444 3.63414 -2.90329 -4.68525 0.651188
188 1 5.14085 10.828 1.74334 -0.885365 -2.81107 1.60112
191 3 6.80774 12.6958 1.57203 -3.92443 0.302034 -4.32468
1086 3 5.26343 12.6719 3.65285 2.9062 2.75197 -3.54741
1089 2 6.78778 10.9366 3.45802 -5.75359 -1.24596 -5.05355
186 2 4.6437 12.5008 0.0862029 0.134299 5.5033 -2.48919
189 3 6.73621 10.7813 0.046295 6.01961 1.12943 -10.1713
192 1 8.55941 10.6607 1.89012 -1.48221 1.90399 6.56434
190 2 8.73889 12.4674 0.177733 2.36233 0.816664 4.45377
1090 3 8.74025 12.5681 3.61604 -9.2255 -4.95312 -6.45136
135 2 10.1927 8.90068 1.56533 -4.10109 8.35786 -5.77768
195 1 10.61 12.3482 1.60764 -0.886839 -1.73858 -1.86683
196 1 12.3524 10.8084 1.72286 -4.68443 -2.36906 -1.334
1093 2 10.2236 10.6269 3.56688 -1.30874 -1.1956 6.74728
1094 3 12.1649 12.5497 3.45668 -0.265691 4.09514 -2.82798
194 2 12.4669 12.6877 0.122258 6.98993 0.638501 1.32683
193 2 10.3979 10.8527 -0.165301 1.82277 0.53231 2.78462
138 2 15.9241 8.91909 0.0874352 -1.57978 -6.35686 -0.819351
139 1 14.0218 8.8809 1.62545 -2.59063 1.64524 -0.350526
199 1 13.9826 12.7114 1.76558 -7.58325 6.17134 -1.00648
200 2 15.8268 10.9001 1.69948 -5.00951 -4.38107 -0.846694
1097 2 14.2448 10.7297 3.29694 2.39077 1.08029 2.39556
1098 1 15.7185 12.6634 3.43492 -0.533946 2.49218 3.18491
198 1 15.797 12.6441 -0.0591214 -4.71161 -1.6502 -1.30294
201 1 17.6089 10.6363 0.110754 5.28463 -1.92524 3.28708
143 1 17.7437 8.90938 1.89151 7.11428 0.466257 2.60913
1101 2 17.7656 10.7602 3.38764 -5.46244 2.57202 3.90156
203 2 17.8516 12.4713 1.5824 5.82349 -1.81126 0.636655
142 1 19.3235 8.90393 -0.0849344 -3.45813 4.62993 -5.61377
147 2 21.26 8.90488 1.79736 -2.3271 -0.512939 -2.54935
1042 1 19.4578 8.95344 3.49986 1.07338 -6.55634 -1.75353
204 2 19.7048 10.5768 1.81571 1.63203 -4.00991 5.40782
207 2 21.2635 12.5311 1.45304 3.21999 1.28632 -4.55974
1102 1 19.5899 12.4305 3.45815 -4.79967 -5.28558 -1.58051
1105 1 21.5498 10.6394 3.50206 -2.03916 -1.58433 -0.910784
202 1 19.3692 12.4653 -0.155786 5.5175 -3.0211 -3.19641
205 1 21.4289 10.5068 -0.0129925 5.5472 -4.75806 2.60481
150 3 26.5219 8.81254 0.0719864 -4.4771 -4.17217 -0.499552
208 1 23.2448 10.5631 1.70788 0.0172407 2.75366 -0.197835
211 1 24.7548 12.3029 1.87168 -2.66227 -2.69462 -2.66168
1106 2 23.0752 12.4896 3.67543 4.66101 -5.22117 4.83256
1109 3 24.7647 10.6035 3.66807 -3.04663 3.20462 8.28543
1110 2 26.3981 12.3846 3.64159 6.73075 -8.05655 -1.83564
209 2 24.7837 10.5654 -0.106007 -0.829354 -2.92942 1.46035
210 1 26.5443 12.5214 0.0397772 -1.04582 0.210401 5.41075
212 2 26.5757 10.5983 1.68676 -1.51026 1.23391 1.24842
206 2 23.1956 12.4923 -0.0376156 4.04936 -0.518698 2.87671
244 2 1.42662 14.1485 2.06121 1.43517 -3.98033 1.89537
247 2 2.88602 16.2773 2.08812 -3.62492 0.983868 0.11594
1142 1 1.22662 16.3037 3.58278 1.63922 8.64869 -5.33146
1145 2 3.13969 14.2265 3.71027 1.29276 -3.60103 -5.18637
245 3 3.0198 14.3941 0.166915 -0.717338 1.20841 2.23571
242 3 1.46645 16.1246 0.223732 -1.67282 -1.84257 1.64845
248 3 4.87962 14.0108 1.62174 5.03359 -2.40533 7.71328
251 3 6.74452 16.1452 1.81516 5.71574 -2.35853 -2.4787
1146 3 4.88389 15.913 3.699 -1.28163 3.16837 -0.847901
1149 2 6.91433 14.2953 3.49109 0.840916 3.61058 6.24166
252 3 8.55204 14.4119 1.69417 5.61219 0.435898 -1.1768
246 1 4.83715 15.9833 -0.0343995 -1.66319 3.82672 0.29048
1150 3 8.47515 16.22 3.68595 -3.92401 0.906097 2.57678
249 3 6.80548 14.6157 -0.0628741 4.67541 -1.81929 2.99956
250 3 8.6885 16.0288 -0.0202048 5.75538 2.70406 1.33794
309 3 6.81713 17.7851 0.0313943 2.8765 4.27098 -2.12933
255 3 10.5331 16.2336 1.76914 -4.38156 -2.90152 2.26522
256 2 12.3967 14.4553 1.95198 -1.06916 -0.188572 -1.6593
1153 3 10.421 14.454 3.52191 8.52637 -3.76224 2.49933
1154 1 12.1762 16.0303 3.62313 5.1074 -2.2261 7.26436
253 3 10.3972 14.0428 -0.0304539 1.43072 1.61157 -6.04931
254 3 12.0265 16.0225 -0.155507 2.55857 0.581376 1.60456
1213 2 10.4741 17.6694 3.82726 4.62797 2.95224 -3.10703
259 1 14.2025 15.9965 1.84181 -3.00474 1.18734 6.10329
260 2 16.0244 14.2267 1.71562 -1.52572 7.3626 -0.0234219
1157 2 13.7775 14.2694 3.96181 -1.89673 3.62808 -2.41684
1158 2 15.9994 16.002 3.47298 0.296623 -3.44988 0.419046
1161 1 17.6523 14.0917 3.63825 -2.50245 5.20726 -6.50813
263 1 17.7181 16.1598 1.7369 1.55207 -0.539491 4.0217
258 2 15.9612 16.1392 -0.173424 2.79897 0.678598 0.450504
257 1 13.9861 14.3672 -0.148382 1.29646 2.28655 2.48496
317 2 14.0215 17.763 0.228382 -1.52433 0.570353 -3.9842
320 1 16.0813 17.7473 1.76067 5.38551 0.695911 -0.478173
321 1 17.8226 17.7284 0.0590113 1.38794 0.359978 -2.85062
264 2 19.3832 14.3586 1.91473 5.94446 -4.04905 -1.51446
267 1 21.2257 15.9765 1.72735 -3.49467 4.73222 -1.8749
1162 2 19.4323 16.1354 3.47279 2.48026 -4.3691 2.26607
1165 2 21.4012 14.1926 3.69713 -7.6324 -0.0637837 -2.93634
262 2 19.4894 16.0476 -0.168803 -1.92561 0.746638 -0.283032
324 1 19.465 17.7619 1.60549 -0.766438 3.2587 5.42366
325 2 21.3975 17.7594 0.119552 -1.00644 0.569296 2.41386
265 1 21.225 14.2427 -0.0151553 -8.29509 4.47441 3.57648
268 1 22.9801 14.2267 1.73212 3.38038 -2.16265 0.431925
271 2 24.8893 16.0115 1.8975 -2.30618 -4.95578 -4.11062
1166 2 23.0898 15.9438 3.50943 2.33522 10.0231 0.4746
1169 1 24.9964 14.2308 3.38076 -1.65056 -4.7205 -3.8749
272 1 26.5193 14.3216 1.75367 -2.40997 -0.371269 -2.35726
1170 1 26.6456 16.1055 3.90071 -1.48732 -2.26938 1.2151
269 1 24.7645 14.2069 -0.0146359 -0.174865 -3.52216 -0.134854
328 1 23.1485 17.7277 1.67514 4.86621 1.83835 6.51636
270 1 26.6823 16.1784 0.161703 -5.45799 -3.32394 2.31831
1205 2 3.15213 18.0207 3.75604 3.10451 5.7977 1.00051
304 2 1.46681 18.1742 1.67421 1.04357 4.64928 2.24634
307 3 3.24874 19.7272 1.85967 0.331268 -1.09935 1.15715
364 1 1.31525 21.4563 1.75872 2.81055 -1.41566 -1.42929
1202 3 1.33691 19.6704 3.79387 1.89942 -2.89196 0.233523
1265 3 3.02905 21.5582 3.67744 -1.69806 0.704625 -5.24369
302 2 1.44795 19.8558 -0.118212 -2.15861 -3.78535 1.76324
305 1 3.32311 18.0257 0.161938 2.61265 5.36079 0.199445
365 1 3.1573 21.5284 -0.0327945 -1.09243 0.36604 -1.38609
301 3 -0.177014 17.8601 -0.124616 -1.80059 4.5752 -1.62549
308 3 4.98008 17.8107 1.98388 -2.5206 3.90015 1.87781
312 3 8.72131 17.807 1.74046 0.545414 -3.30559 -1.83835
1209 2 6.64438 17.8683 3.5169 0.474375 4.34304 -0.266601
311 1 6.76326 19.7387 1.683 -3.64373 -4.38334 -0.890044
368 2 4.76136 21.7295 1.75262 -6.16983 -0.672122 -3.33243
1206 3 4.96792 19.6271 3.61765 3.89559 -5.85052 -2.77425
1269 2 6.67971 21.1993 3.332 1.21032 -2.18477 -2.2616
369 1 6.88373 21.7353 -0.103285 -5.06359 0.561246 -3.97035
372 2 8.71861 21.4026 1.57954 -0.294353 0.498457 1.38763
1210 1 8.51867 19.5664 3.65592 -0.0287692 -1.23552 3.36227
306 1 4.95652 19.8396 0.096287 0.455331 -1.22096 7.73995
313 3 10.4839 18.0857 0.0772441 -1.60027 -4.01182 -0.928376
316 3 12.1815 17.9524 1.82869 1.88112 4.41691 -5.58531
315 2 10.2597 19.597 1.9371 1.7887 -5.75087 -2.98136
376 2 11.9557 21.395 1.86692 0.734002 -2.20061 3.06582
1214 3 11.9742 19.7722 3.51421 -4.22674 1.61813 0.519442
1273 1 10.1937 21.4147 3.72022 0.0187201 1.66793 0.593279
314 3 12.3425 19.7456 0.0323253 3.64086 0.49227 -1.76209
373 1 10.5665 21.4594 -0.0449303 2.07931 2.76576 5.3439
1217 2 14.1664 17.8118 3.64144 1.27822 6.254 4.37385
1221 3 17.6824 18.0344 3.49774 0.565501 1.65292 0.974138
319 3 13.7735 19.7426 1.89698 -6.63151 -1.29512 -1.62723
380 2 15.7593 21.4345 1.83692 -0.330934 -0.550608 7.14164
1218 1 15.5749 19.6934 3.65396 -1.25212 -2.55602 2.92735
1277 2 14.0381 21.4816 3.7382 2.90654 0.489144 -3.12377
1281 1 17.6127 21.3114 3.77603 2.27012 0.16021 4.46505
318 2 15.6402 19.5404 -0.150902 3.00496 3.51389 3.15871
377 1 14.069 21.5562 0.0425014 2.8068 2.67694 -1.21736
323 2 17.8456 19.6699 1.68008 0.0456954 -4.17839 -0.419725
1225 2 21.3424 17.8238 3.57945 1.78761 3.05894 6.80934
327 1 21.1379 19.6145 1.78324 -0.862475 -0.669557 -1.57257
384 2 19.4002 21.3437 1.69562 1.60037 5.43744 4.04543
1222 1 19.4255 19.6457 3.60062 -2.52118 2.76811 -5.5754
1285 3 21.2331 21.5552 3.63416 3.12575 -2.78684 2.73388
322 1 19.4252 19.51 -0.0954764 4.39408 -3.48611 -2.90252
1229 1 25.028 17.8154 3.38119 -8.87084 -2.30247 -1.23767
331 1 24.7061 19.6599 1.8266 -1.17717 -2.90951 3.29947
388 2 23.0023 21.36 1.71536 2.9176 -1.8131 1.36645
1226 2 23.2945 19.8549 3.56552 5.95183 1.95982 -3.71088
1289 1 24.6214 21.7798 3.51489 0.85726 2.20682 -0.508587
326 1 23.0327 19.567 0.00444136 2.27599 7.39247 -0.38052
389 3 24.8997 21.3642 0.182602 -0.137793 3.72023 3.33643
392 2 26.467 21.2848 2.07279 4.35534 1.90875 -2.10492
1230 2 26.4536 19.7173 3.67766 2.12882 2.97317 -0.341927
330 1 26.4157 19.5543 -0.00210191 0.943403 4.47305 -7.36545
329 2 24.7378 18.0587 0.11267 3.49187 -4.62065 2.95752
367 1 3.15319 23.2403 1.98296 2.10761 1.5484 -7.60423
424 3 1.26809 24.8116 1.86204 0.0873001 0.453473 -4.96792
1262 3 1.17505 23.1273 3.76055 1.8326 -0.374246 3.44595
1325 3 2.97358 25.043 3.57696 3.24101 -1.25704 -0.126525
425 1 3.13642 24.9399 -0.00433591 -2.55402 1.10612 -1.7018
362 2 1.19865 23.0799 0.100154 1.54191 -4.70831 1.9622
427 2 3.24275 26.7004 1.80415 -7.70124 -4.06979 3.4483
371 1 6.98769 23.1676 1.65089 4.11838 5.22341 1.68365
428 1 5.01429 24.5904 1.65052 5.45739 5.82815 -0.325612
1266 1 5.03524 23.0966 3.46322 5.71678 -3.53376 0.737142
1329 2 6.83134 24.7264 3.47965 3.49438 -2.39687 0.229224
1270 3 8.67411 23.2852 3.69688 2.02011 -7.31694 2.42652
366 2 4.74922 23.1432 -0.0203954 1.81221 6.28848 0.748639
429 2 6.76684 24.9215 -0.0956179 -2.65286 -0.213938 -1.29128
426 3 5.01698 26.7206 -0.0397244 3.07953 -2.72437 4.20217
431 3 6.68589 26.6805 1.90355 -2.96561 4.06603 -0.340965
432 3 8.51927 24.9695 1.80383 4.4784 -0.491415 -2.73445
1326 3 4.9861 26.2245 3.45514 -6.80416 5.20365 1.75842
370 2 8.59886 23.2993 -0.168105 -3.19552 -3.7241 -0.470046
375 1 10.3186 23.153 1.72211 -0.0760313 3.55525 2.85017
436 2 12.3767 24.9092 1.67693 -3.33593 -3.22373 2.75647
1274 1 12.0651 23.0708 3.76117 4.66208 -1.45553 -3.73569
1333 2 10.4141 24.8959 3.45803 2.56032 -2.33176 4.87386
433 2 10.3485 25.019 -0.0195161 -2.88248 1.92906 -3.66326
374 2 12.2392 23.212 -0.0885018 -4.58776 0.178927 -3.13035
435 1 10.3782 26.6795 1.76591 -2.65125 2.95701 5.54645
379 1 13.9886 23.1215 1.84673 -0.749234 -1.24529 5.28645
440 1 15.4781 24.832 1.91099 1.3768 5.98462 6.90267
1278 1 15.7736 23.0017 3.63125 -4.655 -0.925592 -2.67081
1337 2 13.7852 25.0751 3.66296 -7.57503 -2.39005 1.20474
437 1 13.8543 24.9312 -0.0471057 1.62263 -2.22991 -5.20615
378 2 15.8792 23.1813 0.0454144 2.74857 -1.65771 -1.6358
1341 3 17.4992 25.0179 3.50967 -0.743741 0.640739 2.45983
441 3 17.6257 25.1399 0.245901 -2.29269 -2.54639 1.43353
383 2 17.4625 22.9278 1.90178 -5.8735 -1.80167 -7.33204
1338 3 15.7119 26.6535 3.58017 1.36347 -1.80626 1.16357
439 3 14.0415 26.7197 1.62384 0.578328 0.0706011 1.362
387 1 21.1524 23.2697 1.67869 -6.3293 -2.49445 -1.47258
444 2 19.4688 25.2186 1.96309 -2.79123 -2.28221 3.92398
1282 3 19.3398 23.2698 3.79179 -2.03234 3.83679 1.6376
1345 1 21.2841 24.9779 3.60878 1.71331 2.72162 -7.37493
382 1 19.3287 23.2887 0.143913 -1.78798 1.53991 -0.86586
445 1 21.2685 24.9395 -0.058752 3.73838 -3.14133 5.624
391 1 24.8108 23.3783 1.86837 0.864923 -3.47622 0.492651
448 1 22.9288 25.1387 1.49297 -2.38807 -6.21574 -0.41325
1286 2 23.1202 23.3483 3.53033 3.14684 2.50577 2.50522
1349 2 24.7255 25.1585 3.65946 1.75031 1.46292 1.25157
449 3 24.7947 25.1649 -0.103419 1.08321 1.68615 -3.55946
386 2 23.1916 23.256 0.0579653 -0.808453 -1.04484 1.0718
1290 1 26.5814 23.1658 3.45329 -3.12922 2.45832 6.68654
452 3 26.5278 24.8356 1.97802 1.06162 -4.11357 -0.397867
390 3 26.5188 23.0545 0.116058 -3.69881 1.56224 -0.826318
907 2 3.30015 1.57043 5.57937 0.91629 -0.264335 4.3657
964 1 1.54792 3.47831 5.28243 3.39058 0.978538 -2.19655
1802 1 1.51098 1.68059 7.21773 5.6838 3.77522 2.18713
1865 3 3.41684 3.43488 7.24455 -2.12437 -2.22761 0.232684
1864 3 1.47258 3.61438 8.75714 0.0247887 -3.20874 -8.08199
1809 3 7.02451 0.173139 7.01321 4.46035 -0.523731 -4.50308
911 3 7.04092 1.86513 5.39108 -3.27593 2.63717 -1.32469
968 3 5.06124 3.47431 5.35419 -2.35862 -1.1502 -0.213854
1806 2 5.02227 1.71768 7.20859 -0.651232 7.04578 -1.33943
1869 3 6.86281 3.58406 7.16347 -6.30873 -1.89714 0.306041
1810 3 8.7367 1.79819 7.32138 -0.500525 -0.497809 -3.69762
908 1 4.86134 -0.0940512 5.40028 2.5514 0.350186 0.815926
972 3 8.95059 3.72374 5.50306 -2.20961 1.04664 -5.76534
915 2 10.2217 1.66478 5.37532 -0.129159 -0.79358 2.79288
976 3 12.3117 3.54644 5.3307 -2.0309 -1.39356 -2.6322
1814 1 12.2582 1.74739 6.83522 1.2489 -7.6504 -5.67776
1873 3 10.555 3.54258 7.22153 -5.10559 3.72955 -8.34732
916 2 12.1267 -0.0261428 5.35264 -1.46245 -8.69961 0.711036
1816 2 12.4835 -0.0499636 8.69658 -3.18434 1.26797 6.7792
1876 3 12.4675 3.38915 8.76083 -3.65773 -0.976927 2.61855
919 2 14.1654 1.61408 5.05277 -0.278397 4.54124 1.36367
980 2 15.9696 3.45713 5.44186 -3.21161 6.83743 5.89142
1818 2 15.7801 1.55666 7.10737 1.91008 2.81132 0.188233
1877 1 14.2186 3.51703 6.81779 -6.42213 -6.37319 -2.52548
923 1 17.4182 1.56803 5.3889 0.877842 -8.80193 2.94923
1881 3 17.6379 3.44309 7.11755 4.86658 -0.124303 -4.47811
1820 3 15.9952 -0.111081 8.78325 1.72492 2.475 3.60547
1821 2 17.6819 -0.134776 7.16581 -3.5164 3.34283 -1.90493
1817 1 14.0783 -0.152834 6.92244 0.254159 4.01281 -2.18311
927 3 21.3046 1.92026 5.50596 3.08987 0.696543 -0.318167
984 1 19.4025 3.45376 5.29968 6.49254 -2.03754 -5.5262
1822 3 19.3937 1.69772 7.10757 3.48785 -0.417623 -2.25376
1885 3 21.2444 3.49409 7.39396 -4.05874 -0.463192 -0.0753984
1825 3 21.157 -0.0880611 7.12745 5.96676 1.62174 -1.16805
932 1 26.7488 0.0611586 5.22319 -4.20311 1.45263 -5.82904
992 1 26.567 3.35588 5.46681 2.6162 3.90016 5.10675
931 1 24.9705 1.72785 5.43363 -1.21135 2.966 -6.53742
988 3 23.0457 3.62025 5.42197 -2.26875 -0.325248 0.905437
1826 3 23.2213 1.64404 7.18692 -5.94498 -0.620168 -2.54075
1889 2 24.9251 3.48699 7.08236 4.1336 -7.15223 0.854781
1829 2 25.0857 -0.0828863 6.80941 -2.91078 0.39192 -3.84323
967 3 3.29543 5.39115 5.38332 13.5462 -1.00104 -3.4741
1024 1 1.43481 7.12155 5.1538 -0.628082 1.74611 -4.52293
1862 2 1.55429 5.32129 6.98831 2.6493 0.650785 -5.50502
1925 3 3.19052 7.1885 7.02035 -4.20817 -0.858422 6.52746
971 3 6.89993 5.44286 5.60243 -1.04993 -3.72045 7.60008
1028 2 5.09785 7.09333 5.3121 0.54343 -1.91957 -1.73508
1866 3 5.24839 5.41742 7.13069 2.36956 0.449216 -1.04156
1929 1 6.9553 7.27147 7.18282 -1.46112 -2.39427 3.91412
1032 2 8.69004 7.11734 5.335 -3.31224 1.59013 -3.48976
1928 1 4.97026 7.13421 8.78546 -0.0957836 -1.07819 5.4503
1930 2 8.53691 8.71324 7.36774 2.6988 -3.31382 -0.466934
1031 1 6.91443 8.76305 5.36679 1.87209 -1.11414 3.53978
1870 2 8.9336 5.44161 7.23442 -1.04893 -2.03294 -2.17201
975 1 10.6252 5.48008 5.32077 1.60032 1.86592 -3.94459
1036 1 12.2029 7.11466 5.11133 1.6672 -6.86927 4.09631
1874 2 12.3724 5.33389 6.90132 4.73569 -2.15499 4.7847
1933 1 10.54 7.26449 7.0958 -1.53686 -8.41963 -4.41805
1936 2 12.1378 6.9343 8.77275 -3.3689 2.48453 3.4322
1934 3 12.2517 8.78457 7.0245 4.31521 4.36941 3.02486
979 1 14.0385 5.50559 5.2667 4.93993 -2.3143 1.1124
1040 2 15.7567 7.27662 5.43068 1.92663 -0.375141 3.56307
1878 2 15.9666 5.40673 7.14744 2.82726 -1.80376 1.27348
1937 3 13.9935 7.0648 7.17793 2.07538 -8.46656 4.28072
983 1 17.7508 5.38047 5.42153 2.09527 -0.187598 1.52605
1941 2 17.6005 7.18579 6.94634 -0.303442 -4.6396 -3.3067
1940 1 15.794 7.0336 8.77491 -5.19494 -5.69531 -5.87068
987 2 21.2847 5.44282 5.44561 -3.7724 8.26765 2.77026
1044 1 19.4741 7.1108 5.28451 0.986836 3.1401 -1.73938
1882 1 19.3867 5.07555 7.07678 1.11989 -3.60575 2.95665
1945 3 21.0316 7.15432 7.24867 1.3551 2.75472 -4.73333
1047 2 21.1885 8.6227 5.02968 -3.48774 4.16776 -1.78252
991 3 24.6618 5.34034 5.28281 -1.33591 1.05276 -5.42744
1048 1 22.954 6.89077 5.24971 -1.33345 -0.106277 -3.54452
1886 3 22.7206 5.42389 7.19191 -8.54193 -0.221243 -2.66256
1949 2 25.0836 6.99415 7.09552 3.86375 1.83453 -2.33027
1052 3 26.5884 6.96446 5.24669 -4.82437 7.33172 -2.899
1890 2 26.6479 5.14632 6.87541 1.42747 4.08015 -3.84827
1051 2 24.9448 8.756 5.38174 3.81583 -1.67939 -3.33827
1946 3 22.9227 8.73101 7.10629 1.41192 -4.09267 2.67823
1891 1 24.9219 5.3897 8.78313 1.02503 -3.2211 3.37728
1922 3 1.46866 8.81545 7.21368 7.05622 1.94806 -4.99476
1027 3 3.21967 8.91557 5.41324 2.5031 3.88942 2.07007
1084 3 1.34108 10.7213 5.64345 8.1714 -9.614 7.37239
1087 1 3.05957 12.568 5.53772 -1.51393 -0.973367 -0.56551
1982 2 1.17548 12.5488 7.24275 -2.36031 4.41325 -0.374832
1985 1 3.20719 10.8497 7.15467 3.10159 1.19439 -8.04264
1926 3 4.95235 8.89658 6.97197 -0.674613 -3.33313 -2.88084
1088 2 4.84551 10.8201 5.52992 0.784655 -6.34575 3.02952
1091 1 6.75314 12.4894 5.42891 -3.20112 1.34274 -1.68012
1986 2 4.98704 12.6071 7.15642 0.768651 -4.54254 -0.847484
1989 1 6.87599 10.6379 7.11794 -2.48215 4.58949 0.512774
1990 2 8.75785 12.5394 7.12795 2.50948 3.14328 4.21738
1092 2 8.54264 10.727 5.03845 3.12261 -1.40934 2.15651
1992 1 8.58341 10.7432 8.75247 4.75325 0.958746 7.46939
1035 2 10.3321 8.86456 5.27769 1.02868 0.654062 -0.427457
1095 1 10.5797 12.5299 5.29002 0.960815 -0.479967 1.99767
1096 2 12.1437 10.6091 5.03349 0.889384 -0.91297 -0.163899
1993 1 10.3386 10.6892 6.92913 5.5917 -4.211 3.95072
1994 1 12.1488 12.7017 7.20076 0.660878 2.25081 4.6454
1039 3 13.9215 8.81763 5.21169 2.24086 1.52202 0.583203
1938 2 15.6682 8.84064 7.18133 0.805313 -0.383005 0.916963
1099 3 13.9585 12.2805 5.26336 0.171831 0.423055 0.0666292
1100 1 15.9433 10.6273 4.94748 4.74753 -0.821593 -5.19279
1997 3 13.9019 10.785 7.11147 -6.0964 -0.711858 0.713376
1998 3 15.9391 12.387 7.03088 4.55458 -1.89485 4.14673
1043 1 17.6446 9.12175 5.23233 -2.35037 -3.74542 -3.75932
2003 2 17.7557 12.384 8.77882 -0.229615 -2.57201 8.33986
2001 1 17.3556 10.4381 7.11355 -6.53658 -2.23404 -1.63416
1103 2 17.6999 12.4391 5.15415 -3.91962 -1.03404 3.17819
1942 2 19.4327 8.84909 7.14955 -1.21368 3.55441 2.29536
1104 3 19.4537 10.5332 5.39112 -1.10741 -2.10453 9.13228
1107 3 21.2789 12.2767 5.34832 -2.62676 -3.33038 -1.68485
2002 3 19.634 12.2992 7.20923 1.13246 -0.445935 6.74972
2005 3 21.3459 10.5666 7.24112 -1.03754 4.80752 2.41135
1950 1 26.4681 8.86617 7.10612 3.41224 1.31203 3.82056
1108 1 23.0583 10.397 5.40543 -2.7826 3.38841 -0.536947
1111 1 24.7953 12.3791 5.3881 0.564512 -5.05578 -4.63143
2006 3 22.9616 12.4377 7.10225 -1.43209 -2.93649 -0.0314528
2009 3 24.7155 10.7638 7.13401 4.21776 1.30015 -1.31985
1144 1 1.40416 14.2907 5.42559 -4.392 8.03604 0.264163
1147 1 3.00943 16.163 5.16865 0.460274 1.38857 3.41955
2042 3 1.3831 16.1888 7.01547 1.36779 1.08528 -1.09878
2045 3 3.23689 14.4115 7.26709 -8.39081 2.97033 4.583
2105 2 3.19826 17.724 6.93927 -0.341868 -2.44976 -2.49656
1148 2 4.72957 14.2331 5.56942 -4.56852 3.94093 1.88372
1151 2 6.59171 16.1045 5.66752 -2.40862 4.4531 -3.54852
2046 3 4.89913 15.964 7.26166 -3.20254 -1.95811 3.34487
2049 1 6.88192 14.3669 7.27055 2.62421 2.2021 -2.0174
2050 1 8.64145 15.9251 7.24461 0.543936 2.15331 1.79597
1152 1 8.47673 14.1807 5.24111 -5.77975 -1.13531 4.51211
1208 1 4.94327 17.6337 5.45618 1.93245 1.25527 7.15687
1212 2 8.73831 17.7638 5.49618 -3.955 -5.42451 1.35754
1155 1 10.4557 16.2592 5.53036 1.35378 -2.56438 2.44192
1156 1 12.194 14.2521 5.45001 3.61482 4.01882 -0.74122
2053 2 10.2706 14.3158 7.12616 -4.05603 -4.47114 -0.868249
2054 2 12.1409 16.0674 7.22921 -2.72873 -1.04759 -1.42108
2056 1 12.1645 14.3622 8.78673 0.45556 3.00155 3.94984
1159 1 13.9866 16.0826 5.36725 1.4513 -1.6837 -0.484868
1160 3 16.0005 14.3791 5.49455 -2.67432 -4.57568 0.0947097
2057 2 13.9388 14.406 7.2393 3.29163 3.24347 -0.809173
2058 1 15.8889 16.2544 7.25944 -0.0638934 0.452612 0.979272
1163 1 17.661 16.2599 5.54878 3.67478 -1.85796 0.211459
2060 1 16.018 14.3515 8.69455 -2.56241 0.740443 -4.67428
2061 3 17.9305 14.0808 7.06579 3.81087 6.70508 -6.80633
1164 1 19.4974 14.5366 5.13039 0.932347 -1.55812 -4.03309
1167 1 21.2459 16.291 5.20775 2.19913 2.65635 -3.30675
2062 3 19.361 16.2309 7.15272 1.8383 -2.57599 -1.51753
2065 2 21.2464 14.1677 6.95436 -4.3756 -3.49061 0.362165
1172 3 26.6131 14.3157 5.34432 7.24145 -0.528139 -1.23322
1168 1 23.2683 14.3089 5.24712 -2.01479 -1.49809 -3.70447
1171 2 24.8758 15.872 5.42186 2.94103 -0.149609 4.31145
2066 3 23.1043 15.8085 7.11799 -3.25849 -3.22493 -2.91568
2069 2 24.8212 14.089 7.3496 -3.12958 -7.00228 -3.96847
2070 1 26.6185 16.1397 7.31097 -0.0453005 -0.973362 1.25209
2129 3 24.5432 17.6063 7.22941 1.66914 3.70071 -3.39802
1204 3 1.37702 17.908 5.48874 -1.80667 -4.24408 -5.49296
1207 2 3.17265 19.647 5.44199 3.20749 4.33266 0.109409
1264 3 1.23093 21.2764 5.34233 7.2707 0.763845 -2.09619
2102 2 1.29352 19.7053 7.24828 2.83242 -2.2987 -1.79978
2165 1 3.25785 21.2931 7.06994 -3.71636 -1.94263 -3.62714
2109 1 6.81448 17.7791 7.34915 -2.19199 -0.99135 -2.30458
1211 1 6.67242 19.6361 5.25062 -1.96578 4.02406 4.92321
1268 1 4.93915 21.5753 5.34766 0.348846 6.89217 4.09044
2106 2 5.08728 19.7268 7.29735 2.4398 3.97038 -0.784457
2169 3 6.62492 21.661 7.31675 3.51585 -3.97871 2.95254
1272 2 8.42946 21.4019 5.56514 -2.33453 -0.695988 -6.36326
2110 1 8.53345 19.6293 7.29945 1.47814 4.88552 2.80618
2113 3 10.4501 17.9221 7.30244 5.91045 -0.19425 -4.95606
1216 1 12.314 17.823 5.38555 1.63023 0.191979 0.0780792
1215 1 10.2068 19.7443 5.51675 -1.39141 -2.00724 -2.72004
1276 2 12.0596 21.3773 5.63723 -0.412445 -1.77665 -3.911
2114 2 12.135 19.7711 7.41876 8.20878 1.02492 2.7436
2173 1 10.1675 21.4439 7.12664 -0.763232 3.21491 -2.81779
2117 2 13.919 17.8289 7.21544 -8.71948 -2.64356 -0.837883
1220 3 15.9671 18.0985 5.4106 -7.21832 -1.40644 3.96144
2121 3 17.512 18.2868 7.34138 -5.79225 3.69649 6.5437
1219 1 13.7026 19.7328 5.43151 -4.42907 -0.89046 -1.82775
1280 3 15.5975 21.4712 5.50387 -1.58055 2.25004 0.390777
2118 2 15.4673 19.7148 7.25423 1.09519 -1.36947 3.51831
2177 1 13.7677 21.5577 7.12269 6.42065 -7.85059 -2.15473
2181 1 17.3054 21.5748 7.18428 0.332933 0.037564 -4.98353
1223 2 17.482 19.7725 5.4527 -2.61851 3.46238 -2.07894
1224 3 19.5775 18.0328 5.38797 -0.57295 8.6244 1.72204
2125 2 21.2847 17.8243 7.20697 -0.60668 -0.853044 -5.27822
1227 3 21.3379 19.7764 5.36201 5.43585 -2.3385 4.70217
1284 2 19.5062 21.2322 5.65392 3.00835 4.52084 0.157194
2122 1 19.3652 19.7292 7.33832 -9.10251 2.70308 2.49677
2185 2 21.3979 21.6532 7.03623 4.54019 -2.59271 2.19716
2127 1 21.1802 19.7593 8.78093 1.12796 -5.51873 -4.96657
1232 1 26.4722 17.9249 5.53439 9.24998 1.5705 2.9372
1228 1 23.0082 17.8498 5.15595 0.416774 0.697381 2.34803
1231 2 24.7768 19.7323 5.37207 3.65671 0.0633328 -0.869814
1288 3 23.0299 21.6511 5.40703 0.0854395 3.32816 -2.80966
2126 3 22.9402 19.7288 7.08268 -2.17481 -2.85984 1.23761
2189 1 24.715 21.4839 7.16976 -1.08905 4.67816 -0.216601
1292 2 26.5745 21.4789 5.33026 -3.20452 0.832577 1.56215
2130 3 26.5899 19.9306 7.23193 9.3919 -0.344043 -3.42753
1267 3 2.93285 23.1775 5.47807 1.51356 1.82663 -0.330695
1324 3 1.19443 25.0002 5.4664 -1.1075 -1.09413 2.17791
2162 2 1.14768 23.318 7.26125 -1.85112 0.21388 0.407231