ITEM: TIMESTEP
128400
ITEM: NUMBER OF ATOMS
13500
ITEM: BOX BOUNDS pp pp pp
-1.7798654251945933e-01 5.3697986542501823e+01
-1.7798654251945933e-01 5.3697986542501823e+01
-1.7798654251945933e-01 5.3697986542501823e+01
ITEM: ATOMS id type x y z vx vy vz
7 1 3.11872 1.93874 1.77775 -3.51956 1.50678 -5.53552
64 3 1.31154 3.75263 2.11661 1.03047 1.2392 -3.87087
902 2 1.23685 1.91578 3.67271 -3.77871 1.3783 4.92593
965 2 3.3966 3.59682 3.87261 -2.6992 -3.8799 4.64302
65 2 2.94715 3.66995 0.0284317 0.43601 4.07462 -2.58995
905 2 3.07731 -0.0602463 3.62231 -2.11259 3.00498 0.0527582
2 2 1.6424 1.82556 0.123536 -3.01941 2.71539 1.1289
5 3 3.01704 -0.0794203 -0.1268 -1.46982 -3.2518 4.5003
61 1 0.00561372 3.71957 0.139593 2.05596 -1.55564 -1.07034
11 2 6.5163 1.97336 1.72113 0.895636 1.30029 -5.73913
68 2 4.85516 3.72229 1.76245 3.77496 2.80037 -2.03049
906 3 5.09896 1.76771 3.66124 4.44388 -0.399996 -5.60261
969 1 6.7811 3.7447 3.5651 1.82877 0.424485 -8.58216
910 1 8.25373 1.81249 3.54756 1.23817 1.44259 2.25104
10 1 8.38685 1.67127 0.193564 1.1977 -0.806158 2.72218
72 1 8.33874 3.71264 1.79687 1.81305 3.81108 -0.953306
6 1 4.61837 2.01513 -0.0556323 4.93218 -0.351936 3.54615
9 3 6.54733 -0.0146897 0.141371 3.68586 -3.20146 -6.44389
8 3 4.5648 -0.0883105 1.66991 0.173381 -8.2719 3.58097
69 1 6.66959 3.78247 0.0104812 3.58683 3.12895 -3.23601
909 2 6.57097 0.00611643 3.53098 6.13932 -5.39903 -4.65382
12 1 8.38348 0.00969895 1.97045 -1.96936 -5.58752 5.94947
15 2 10.1352 1.95651 1.89465 2.94877 4.22696 -8.05082
76 1 11.9541 3.73551 1.93345 -0.0923369 0.00984362 3.03498
914 3 11.8431 1.97935 3.74001 5.86066 0.909559 -2.53829
973 2 10.0062 3.70874 3.7269 2.27692 1.03394 -1.54704
14 1 11.9044 1.8078 0.149636 0.488449 0.95764 1.00377
73 2 10.2497 3.5285 0.00522715 -2.84841 1.32959 -0.185031
13 3 10.0549 0.116498 -0.105258 -6.49404 2.51263 2.96226
16 1 11.9415 -0.0255004 1.96039 -3.69956 -0.348145 -0.628285
913 1 10.1375 -0.0222243 3.57053 -2.40141 2.3189 4.18448
19 2 13.8551 1.78523 1.89399 -9.45369 -6.83976 4.31169
80 1 15.6338 3.63824 1.84309 -2.90118 -0.110735 3.14446
918 1 15.5365 1.79863 3.68949 0.0152675 -0.712863 0.703279
977 2 13.6821 3.47368 3.62419 2.0575 1.59254 3.64109
921 2 17.2998 0.121423 3.62576 4.50469 -0.196485 -1.0079
77 1 13.5811 3.62102 0.209564 1.40719 -3.1077 -2.60113
21 3 17.3246 0.00287412 0.125439 0.939238 1.76334 -0.636676
81 1 17.3592 3.57021 0.285415 -2.90545 0.793357 1.3008
18 2 15.4903 1.92187 0.0308506 0.246626 -0.359307 -5.45223
20 1 15.5916 0.0382564 1.91394 -3.96528 9.12797 0.299808
917 2 13.7172 0.132298 3.77192 6.22092 -1.83754 -1.00213
981 2 17.3478 3.4752 3.74222 -3.91497 0.281751 -1.6864
23 2 17.4399 2.06321 2.06393 -0.32689 -2.15556 4.10553
17 1 13.8115 0.0354933 0.27141 1.76336 -3.09606 2.96442
27 2 21.0111 1.73596 1.72112 3.75619 0.922967 -4.57675
84 1 19.3002 3.34946 1.94535 -0.251249 2.30287 2.91387
922 1 19.3157 1.76511 3.66325 6.15087 -2.61339 -6.20368
985 3 21.0047 3.53182 3.40184 0.155637 -1.7679 5.96171
24 1 19.2266 0.0805572 2.11612 0.076509 -6.10612 4.31356
22 2 19.1482 1.66783 0.132356 -2.88041 2.51566 2.35371
85 1 21.0865 3.63281 0.156512 -2.25939 0.600688 5.50962
925 1 20.9914 -0.0417747 3.65065 2.75103 4.06538 -2.81805
25 1 21.0218 0.0988703 0.348512 -0.846514 1.76507 -0.956857
31 3 24.8226 1.87217 1.93183 1.55013 2.83555 1.60677
88 3 23.0539 3.52438 1.78969 1.26125 -0.352209 -1.65512
926 1 22.8807 1.81708 3.74378 -2.56978 -0.720288 8.28911
989 3 24.7356 3.59252 3.66357 -1.6087 3.9203 1.73425
92 3 26.4935 3.80319 1.95483 -3.219 -1.53298 -3.00401
89 3 24.9706 3.54024 0.227902 -2.24814 3.93487 4.3002
930 3 26.6089 1.76657 3.70879 -3.30916 2.84119 1.16613
30 3 26.4932 1.79189 0.222417 1.70893 -1.42292 3.49163
26 3 22.9104 1.77505 0.259868 2.89483 -1.92942 11.5371
29 3 24.7598 0.0159315 0.486342 -2.02023 2.25966 2.30557
32 1 26.4558 0.123838 2.01948 -8.04201 4.33778 2.56613
28 2 22.7579 0.145556 2.1703 1.9318 3.97944 -6.63604
929 3 24.68 0.0298309 3.81409 -2.88335 2.70089 1.93886
67 1 3.04275 5.41063 1.8524 -6.14533 -0.865877 -0.782353
124 3 1.19832 7.34594 1.84488 2.72572 3.13181 1.5161
962 2 1.51054 5.61305 3.71199 -0.432067 -6.22205 0.0825831
1025 2 2.96117 7.13687 3.81686 -0.563709 6.26665 2.61065
62 2 1.28274 5.52732 0.173282 -1.6372 1.44172 6.50595
125 1 3.00725 7.1968 0.100675 4.16291 0.768046 0.32986
71 2 6.82568 5.36604 1.75998 -9.54529 3.27391 -3.15233
128 2 4.76274 7.18576 1.82832 0.7524 3.98564 -0.976451
966 1 4.90413 5.31823 3.74982 3.48185 1.5973 4.0967
1029 1 6.44174 7.30266 3.52049 1.02821 0.63733 -0.771956
970 1 8.3458 5.65439 3.57534 -6.40101 -0.0665153 -3.12957
129 1 6.52781 7.19029 0.0493068 4.28327 -4.45548 -1.79305
66 1 4.75574 5.39133 0.00780841 -1.56673 3.53794 -4.26001
132 2 8.50377 7.29283 1.90043 2.80818 0.283219 4.29639
70 2 8.43085 5.24739 0.138242 4.96561 -3.03819 -0.891782
75 1 10.2682 5.68302 1.92512 0.803621 -8.95052 4.71033
136 2 11.7978 7.34979 1.86756 -1.36045 -1.76982 -2.32103
974 3 12.0265 5.40554 3.76646 -0.152833 0.457817 3.22087
1033 1 10.1214 7.27254 3.78027 1.73927 -0.0168782 -1.49312
74 1 11.8269 5.42632 -0.0153678 -4.21751 1.5881 1.44189
133 1 10.1779 7.11809 0.00791262 0.322254 -0.530789 4.06912
79 2 13.7001 5.66641 1.7388 -3.32234 1.82036 -0.969631
140 1 15.6162 7.02233 1.69715 -6.21064 -5.43483 3.77456
978 1 15.4565 5.40122 3.68457 1.89818 -0.743586 -3.33601
1037 3 13.5111 7.22724 3.77468 -2.09905 1.66184 0.0822129
1041 2 17.2325 7.19981 3.70589 4.11293 2.96271 -0.249706
137 3 13.6999 7.285 0.205928 -7.10331 0.54235 -1.60835
78 2 15.5126 5.53056 0.0539048 -4.29841 -4.22476 7.45243
141 1 17.3556 7.14516 -0.0340684 -5.30434 1.97619 -2.48865
83 2 17.3908 5.35732 1.81025 5.19633 0.192679 -5.06577
143 2 17.2673 8.73068 1.91769 0.395712 4.84028 -4.45244
87 3 21.1789 5.39261 2.02038 1.29172 2.16598 1.72547
144 1 19.1412 7.16513 1.982 5.23499 3.69735 2.51087
982 3 19.0441 5.4025 3.67923 -0.0692267 3.08212 5.00392
1045 3 21.0565 7.12969 3.67885 4.94926 4.41053 2.37928
145 1 20.7718 7.19149 0.248028 -0.461267 -3.18399 2.11576
82 2 19.25 5.29266 0.330328 0.799817 -0.1808 3.87008
1042 1 19.0217 8.68035 3.67972 -2.315 -1.08681 -1.12719
91 3 24.5511 5.29754 2.03306 5.49379 5.98512 -4.22482
148 3 22.7679 7.24679 1.74666 1.12217 1.52703 0.691675
986 3 22.7374 5.42855 3.92847 1.37895 -0.943862 0.873989
1049 3 24.7477 6.87853 3.75822 3.76053 5.51631 -6.87272
990 3 26.5677 5.36325 3.63578 3.41532 -8.93283 1.23577
152 3 26.5499 7.17463 1.97712 -2.02101 8.40555 -3.12329
90 3 26.5209 5.2312 0.122599 -0.624026 0.625719 6.12234
149 3 24.785 7.15485 0.355476 -0.677722 -4.16641 2.69546
86 2 22.8617 5.34539 0.0642173 0.746535 1.60302 4.56402
127 1 2.91882 9.21325 1.77768 1.57485 2.55826 -2.95775
1022 1 1.28969 8.86068 3.63379 -3.6765 0.193315 4.53283
122 2 1.3214 9.04222 0.118869 6.25452 3.81694 0.282043
184 2 1.18524 10.8579 2.04563 0.419668 1.32142 1.32449
187 1 3.08938 12.5358 1.75705 2.46499 3.27349 -1.04508
1082 1 1.19347 12.6896 3.47049 -0.125372 6.98533 -1.55447
1085 3 2.94399 10.8126 3.65326 0.251497 -2.63792 -2.38222
185 2 3.23326 10.7154 0.249683 4.13623 1.52097 3.01409
182 2 0.847144 12.4689 0.0745088 -2.83052 1.04192 -3.91582
130 1 8.50436 9.04515 0.0809705 0.915103 0.430234 -1.10832
131 2 6.60297 8.94716 1.71095 1.64291 -4.15284 0.209223
126 1 4.95211 9.03019 -0.0879903 -1.4699 0.5863 -4.56147
1026 3 4.75834 9.15114 3.56822 0.2004 0.543895 0.53996
1030 3 8.50939 9.25857 3.63221 3.9631 1.0493 6.59178
188 3 4.88404 10.8567 1.92915 2.33924 -0.0991996 -1.05802
191 3 6.93247 12.6211 1.7767 2.25641 6.07374 -2.18015
1086 1 4.80028 12.5703 3.66005 2.4563 -3.05086 -6.36745
1089 3 6.75611 10.9147 3.59993 4.62832 3.61328 7.97971
1090 3 8.5953 12.67 3.62852 -1.33319 2.78706 0.74055
189 1 6.70885 10.683 0.137839 -3.67365 6.72357 3.85422
192 1 8.61926 10.6795 1.81458 -2.26458 -5.78624 -1.07525
186 2 4.82482 12.7439 0.112765 3.03516 -5.15713 3.40414
190 2 8.70608 12.7354 0.0597881 2.26567 8.28619 -4.61824
135 3 10.2515 9.11456 1.84052 9.43704 -4.81966 -0.0327706
134 1 11.9226 8.85048 0.141588 -5.09837 3.65231 7.14648
1034 1 11.8998 9.05561 3.7883 1.66444 4.08249 3.08059
195 3 10.425 12.6366 1.61806 -1.26865 2.65366 4.27061
196 3 11.9784 10.8262 1.68031 0.309697 5.29348 -1.16725
1093 2 10.4449 10.8272 3.66418 0.431244 12.847 4.87909
1094 3 12.0153 12.6421 3.59702 -3.25419 -7.77183 -3.94507
194 1 12.1579 12.5822 0.00579078 0.72115 -1.41661 -3.21498
1038 1 15.6462 8.80264 3.7684 -0.724966 -2.40387 5.09293
139 3 13.5778 8.91932 2.14095 -2.49842 0.501501 -1.94077
138 3 15.473 9.07682 0.00185802 -2.43063 -6.53834 2.12401
199 3 13.9016 12.57 1.6897 -0.169958 -1.34645 1.63175
200 1 15.5097 10.625 2.17129 -0.631405 0.0498546 3.45825
1097 2 13.9652 10.8806 3.72254 0.0903738 -3.5632 -0.299378
1098 1 15.9457 12.4182 3.68711 -3.72434 7.99645 2.64442
201 2 17.234 10.7555 0.382653 0.639846 0.221109 6.60949
197 2 13.7425 10.7311 -0.00870604 0.885522 -1.18742 6.30174
198 3 15.7275 12.4935 0.0115102 -0.368535 0.0282073 2.31545
1101 2 17.478 10.578 3.63357 -1.8416 0.877954 2.84362
203 1 17.6736 12.4466 1.98398 -7.89595 -2.44657 -1.5609
147 2 20.9088 8.90554 1.84765 0.0848099 0.272202 -0.011318
142 1 19.0421 8.94761 0.188735 -2.37151 -3.20988 -5.78779
204 2 19.293 10.6942 1.95615 1.26511 1.90701 3.85819
207 2 20.8457 12.5036 2.02951 -3.47976 3.55054 2.2926
1102 1 19.3722 12.5791 3.97621 -4.06715 11.3482 -7.752
1105 3 20.8557 10.4922 3.7788 1.81092 0.0881865 -2.94566
205 1 20.9192 10.7855 0.278381 0.273417 6.41158 2.76033
202 1 19.1642 12.4291 0.217764 0.744931 1.84203 -1.81837
151 2 24.5243 9.05087 2.28297 -0.141247 2.70005 -2.26594
1046 2 22.7881 8.96856 3.75497 2.06892 -0.107471 5.17225
150 3 26.4407 9.04983 0.281601 -4.9251 -2.89251 1.05053
1050 1 26.5204 9.037 3.51245 1.72279 -2.16367 -2.53941
208 1 22.6895 10.7519 1.96651 4.49135 -1.90761 -4.14491
211 1 24.2584 12.6068 1.75157 0.422921 6.51869 -3.5447
1106 2 22.792 12.4789 3.68028 1.69423 1.23054 -4.1358
1109 1 24.3911 10.8521 3.53028 2.0104 -0.886522 4.81247
1110 2 26.4654 12.4702 3.68351 4.23179 1.95925 -2.30646
212 2 26.4321 10.9209 1.92514 5.88993 -5.05896 0.391287
210 2 26.2164 12.5643 0.186356 2.40832 -0.44482 -0.902021
209 1 24.6177 10.5482 0.187529 -3.51361 -1.58603 -1.36646
206 2 22.6417 12.5555 0.069374 1.79432 -0.6215 4.78256
146 2 22.757 9.04401 0.155395 -4.75 7.16589 -3.25755
244 2 1.23215 14.2839 1.87035 -3.53464 -2.21275 0.535899
247 2 2.9459 16.0745 1.80724 2.93165 -0.0892022 2.84387
1142 1 1.15431 16.3894 3.69313 -4.84831 3.86765 0.177551
1145 2 2.95338 14.3923 3.62815 1.87717 4.32962 -2.06134
245 1 2.96089 14.3915 0.164588 2.75892 -5.08797 -3.06726
242 1 1.31003 16.2547 0.110004 3.96001 -5.10378 -1.68269
248 1 4.68436 14.3131 1.71467 -4.50154 2.23292 0.399415
251 3 6.53787 16.0065 1.84248 -2.54363 2.89858 3.20274
1146 1 4.67484 16.0581 3.47778 -0.168444 -0.780636 1.9928
1149 3 6.53819 14.1758 3.61528 0.329145 -0.495506 -3.66217
1150 1 8.14889 16.2257 3.60349 -1.75809 2.66002 0.561497
252 3 8.45839 14.4092 1.91626 -10.3439 0.597417 4.56438
250 3 8.42905 16.3014 0.215232 -5.27864 0.254266 -2.62457
246 2 4.84194 16.0202 0.149618 -5.28985 -0.261956 -4.1814
249 3 6.69444 14.4446 -0.0490868 3.18871 1.74168 2.67735
255 3 10.3486 16.2538 2.03302 0.80885 -3.77714 4.8005
256 3 12.0783 14.4784 1.74877 -4.63098 3.7451 -8.10786
1153 3 10.2434 14.504 3.54534 7.46789 -2.60237 -5.53946
1154 3 12.175 16.0714 3.52655 -7.68377 -1.54031 1.21064
254 3 12.2394 16.1666 0.00631725 -6.50313 -2.14743 2.97553
253 3 10.3266 14.5233 0.0378369 -0.377638 -3.99168 -5.09141
259 3 13.9186 15.962 1.86271 2.86657 -2.8088 -0.900701
260 2 15.5864 14.2783 2.15759 5.73455 1.86003 3.68822
1157 3 13.9171 14.1273 3.57767 0.452471 2.04028 -0.220959
1158 3 15.5878 16.1691 3.66723 -6.32554 0.668497 5.33445
263 3 17.392 15.9269 1.82971 2.96467 -3.77437 -3.85758
1161 3 17.5893 14.2718 3.89561 0.402215 0.901651 -2.85616
261 3 17.3613 14.2448 0.208022 -1.41571 -3.62508 -3.08955
257 1 14.0977 14.515 0.01288 4.59066 3.59926 -5.00919
258 2 15.6798 16.0144 -0.178821 0.507875 -4.19901 -1.97347
264 2 19.3618 14.2799 1.94135 1.34792 -0.81908 -4.21432
267 3 20.7564 16.2557 2.18375 -5.38756 6.36037 0.612595
1162 3 19.0889 16.1792 3.85568 -3.72153 1.12524 -3.67349
1165 3 21.0338 14.4782 3.70273 0.186122 6.39514 -1.01739
265 1 20.9063 14.2637 -0.000142103 -0.565033 -2.4251 -2.85685
262 2 18.9944 16.3848 0.168394 3.20147 -4.2213 7.74074
1170 1 26.4839 16.1183 3.59606 -1.11857 -1.93273 1.85211
268 3 22.7882 14.3936 2.0413 0.950818 -4.32814 -5.82768
271 2 24.6353 16.1381 1.99211 8.04091 2.25591 -6.19023
1166 1 22.864 16.1198 3.85992 2.22009 -5.03611 -3.14191
1169 2 24.6038 14.2876 3.79917 10.5687 1.70533 -4.00644
272 1 26.1693 14.2728 1.90493 -2.43218 -2.96146 3.10412
270 3 26.5205 16.1398 -0.0911525 2.26858 -1.04806 -2.45444
266 3 22.6792 16.0574 0.168323 -6.82439 -2.40669 0.306556
269 1 24.3895 14.2118 -0.0659033 -6.39982 0.912483 -0.160747
328 3 22.7086 17.7147 2.13339 6.12749 -2.34314 -2.20331
305 1 3.1835 17.9113 -0.0194996 3.12979 -3.21741 0.538841
1205 3 3.0123 18.0108 3.69375 5.93835 1.52116 1.3453
304 1 1.48896 18.0652 1.76457 2.30162 -1.6842 5.38582
307 2 3.09796 19.8821 1.77678 -5.42797 -9.56837 1.59232
364 3 1.17246 21.5573 1.93626 5.75851 -1.48411 0.147888
1202 1 1.48262 19.7306 3.67078 5.28276 -2.92483 0.204113
1265 2 2.88909 21.7246 3.73037 -3.41446 -2.05459 -3.70098
365 1 2.94664 21.7519 0.110827 3.31125 7.19125 -6.08748
308 3 4.72381 17.9245 1.79659 -1.76613 0.0140087 -1.86901
312 3 8.46551 18.0678 1.83583 -4.5912 -2.74628 -0.238844
309 3 6.67106 18.0299 0.00825379 8.53723 -2.27375 3.27019
1209 2 6.46353 18.0478 3.63083 -3.2117 -2.13263 -1.5721
311 3 6.68722 19.9219 1.95164 2.59358 -0.600219 0.373308
368 2 4.85674 21.7354 1.87828 -2.31915 2.79046 0.302509
1206 1 4.57795 19.7545 3.61161 3.45038 -3.86897 4.11363
1269 2 6.67922 21.3615 3.71606 0.422449 -4.06843 -1.90559
310 1 8.43613 19.7661 0.0720735 -3.2756 0.635121 -1.4044
372 2 8.3749 21.6671 1.84882 -4.93606 2.91588 -0.0945602
369 1 6.66229 21.9077 0.120927 -12.709 -2.49692 8.17759
1210 1 8.41695 19.8469 3.64012 2.72433 -0.624913 3.55899
306 3 4.97751 20.02 0.202114 2.64935 2.20453 1.06029
316 3 12.1547 18.0785 1.94361 -2.91066 -1.90037 4.20373
1213 1 10.0868 17.9951 3.74608 -2.61502 0.59497 -0.0940433
315 2 10.0172 19.9067 1.88177 -2.52011 -3.6747 -2.6792
376 2 11.9999 21.6376 2.04649 -1.81416 0.467355 -4.00495
1214 3 11.8747 19.5722 3.85778 2.73344 -0.6929 7.43552
1273 2 10.3511 21.449 3.61342 1.34398 0.914253 -3.48084
313 3 10.4753 18.0488 0.007029 -1.29108 0.950366 1.26508
314 3 12.0298 19.8233 0.218556 0.993753 -3.34833 -2.01804
373 1 10.1126 21.6327 0.168965 2.94088 4.0239 0.558507
1221 2 17.3629 18.0595 3.56032 4.0539 -4.02919 1.15319
320 3 15.6195 17.9733 1.71294 2.87786 0.763981 -2.23603
317 2 14.1494 18.135 0.119422 -3.75372 -3.79102 -4.10335
1217 3 13.8919 17.9395 3.66537 -2.78479 -2.14464 -0.964893
321 1 17.4517 17.9134 0.0378646 -0.495972 -2.93184 -4.14727
319 1 13.9217 19.7805 1.83186 -0.25389 -3.27409 -1.81757
380 1 15.4697 21.4302 2.18622 2.27848 2.38742 -3.95443
1218 2 15.6577 19.825 3.61815 3.62868 1.38321 -1.01592
1277 3 13.7356 21.5451 3.51812 -0.953824 0.102092 -1.96443
1281 3 17.5249 21.7023 3.58882 1.30181 -1.9791 0.305236
323 2 17.2161 19.8502 1.51552 -1.53672 -1.75258 4.14043
318 2 15.591 19.9984 -0.0865666 6.71861 -4.20304 2.13873
381 1 17.6498 21.6997 -0.0574325 5.88865 1.41465 -3.29429
377 1 13.9449 21.4752 0.121599 0.128762 0.74165 -1.00652
325 3 21.032 18.0319 0.228363 -1.14797 2.0084 -8.17851
324 1 19.2565 18.3112 1.94255 -0.0216332 1.65814 5.56424
1225 3 20.9846 17.997 3.80545 0.691135 -0.884325 1.93091
327 3 21.0341 19.6716 2.01158 2.16879 -1.88509 -0.147281
384 2 19.139 21.659 1.93299 -2.31277 0.368202 1.46768
1222 1 18.8186 19.752 3.78067 2.67754 2.50155 -6.44574
1285 1 20.9505 21.6774 3.73997 1.43759 -1.43494 2.17603
385 1 20.715 21.5511 0.364529 1.62753 8.16753 2.44086
322 2 19.3104 19.6915 0.196439 0.92084 4.14337 2.12835
1229 1 24.5802 18.2106 3.64578 0.529513 3.94139 2.91947
329 3 24.5727 17.7915 0.160165 -2.09074 -2.28109 0.379156
332 3 26.3017 17.9142 1.92313 -2.09831 0.367275 -0.143127
331 3 24.6526 19.7887 1.80736 -0.186937 6.41531 0.958477
388 2 22.8774 21.612 1.8326 -4.93584 2.06998 3.10423
1226 2 22.6193 19.8887 3.68012 1.02585 2.76094 1.82012
1289 1 24.3922 21.6052 3.62307 2.03646 1.85867 0.19555
392 2 26.2722 21.6607 1.91913 -2.54694 -1.19927 -1.65664
1230 2 26.5086 19.8981 3.56605 -5.9118 2.34808 -0.431057
389 2 24.6618 21.451 0.12625 6.17494 -1.35646 -3.37343
326 3 22.7992 19.6152 0.348274 0.680233 -1.00542 2.44794
330 2 26.3865 19.6371 0.246662 -4.89095 4.50671 1.31177
367 1 3.01673 23.4513 1.93237 4.01653 1.40929 1.32884
424 3 1.33763 25.1656 2.17341 4.223 1.14192 -0.561677
1262 1 1.21303 23.2891 3.80038 -4.38007 -4.25986 0.709047
1325 2 2.94075 25.0727 3.8567 4.97595 4.3812 1.38355
362 2 1.44189 23.5427 0.192483 -3.97037 0.0595088 2.9057
425 1 3.06121 25.3644 0.180045 -1.67496 5.6395 -0.985364
371 1 6.80452 23.4281 2.06973 -1.10044 -1.61242 4.64108
428 1 4.66191 25.2766 2.04304 -3.28152 -3.16167 4.73363
1266 3 4.84262 23.4112 3.65888 -4.03374 3.56024 1.18264
1329 2 6.56398 25.2665 3.74736 -0.46194 -2.03276 3.79695
432 2 8.48786 25.2837 2.37809 2.32103 1.24695 -2.56116
429 3 6.53666 25.2096 0.121219 -6.20848 3.38628 -1.05802
1270 1 8.42244 23.4049 3.82263 10.4639 0.386457 0.674823
370 2 8.33737 23.5171 0.0573682 -2.00823 2.7561 -0.398647
366 2 4.82822 23.4599 0.186982 -7.96644 -1.46892 -2.46972
375 1 10.1646 23.4457 2.00693 -0.286791 -1.23332 0.558153
436 2 11.8976 25.047 1.90319 -0.695043 1.9025 -0.536045
1274 1 12.0024 23.4292 3.79889 4.39538 -1.87251 -0.718955
1333 2 10.3102 25.2255 3.91954 -2.31445 0.968142 2.1152
374 1 11.7702 23.1772 0.325228 -5.78401 -2.67143 -3.61443
433 2 10.097 25.0977 0.255707 2.15994 5.59553 -4.82898
379 3 13.7129 23.4996 1.86869 -0.320959 1.78463 4.16845
440 3 15.6447 25.0266 1.83943 -5.80828 1.59192 0.151616
1278 1 15.7192 23.6551 3.81696 0.801471 1.86444 4.92205
1337 2 13.6855 25.0971 3.70933 -6.28083 4.84839 -0.250888
383 3 17.5444 23.5122 2.03232 8.10928 2.97102 0.478793
1341 2 17.5913 25.2823 3.66287 2.48007 -2.03216 0.725941
437 1 13.8272 25.108 -0.0621471 -3.54591 -6.47433 -2.29672
441 3 17.1645 25.058 -0.127227 -2.61437 -0.338372 -6.41616
378 2 15.6896 23.2554 0.30184 0.763037 -0.55367 -1.09164
1338 3 15.396 26.549 3.90136 -11.059 3.91507 9.14594
439 1 13.5653 26.7566 1.74525 -6.59593 -0.646559 -0.106208
387 1 20.9285 23.2915 1.95604 4.60011 0.135514 -3.0917
444 2 19.2496 25.2053 1.9021 1.22599 -0.913027 -2.42742
1282 1 19.2802 23.4196 3.80204 -3.10597 0.646692 1.71516
1345 2 20.7541 25.1883 3.87391 -2.50361 -1.41962 0.292606
382 2 19.4314 23.5754 -0.128475 -2.22604 3.79061 -2.40642
445 2 21.0602 25.1088 -0.0647302 1.05158 4.93093 -3.29197
442 2 19.0729 26.7466 0.132095 2.18235 0.16522 -1.30036
391 1 24.3729 23.478 1.95419 2.32405 3.84424 1.04147
448 1 22.6463 25.1385 1.71166 -3.05231 -1.40754 -5.26004
1286 2 22.6648 23.1164 3.65958 6.51122 5.31646 2.0202
1349 3 24.2994 25.2994 3.75596 -1.48058 -1.65393 -0.201237
1290 3 26.1345 23.5782 3.66134 1.08061 5.27086 -4.86528
452 3 26.1134 25.2264 1.84521 -0.898986 -1.54377 -3.18934
386 1 22.8335 23.3106 0.0744504 2.23111 1.85067 -3.12928
449 3 24.4943 25.3417 -0.0350744 -2.1598 -1.41719 -2.23704
390 3 26.1778 23.4283 0.23105 4.07262 5.39845 2.85525
907 1 3.17061 2.01905 5.34413 1.8213 5.43512 -0.38809
964 1 1.26135 3.63874 5.4352 -9.21605 1.22572 -3.38008
1802 2 1.46077 1.92477 7.32544 -1.30117 3.31392 4.39658
1865 3 3.22696 3.55499 7.35811 -2.00259 -2.26642 6.32764
904 1 1.34445 0.0723794 5.37379 4.2578 3.65915 -0.860235
1805 1 2.96028 0.187226 7.26654 -1.16477 -2.69233 0.926041
911 3 6.65402 1.49901 5.70772 -1.65951 3.56841 -2.49346
968 2 5.14068 3.59162 5.54607 -1.49405 2.35924 7.83339
1806 3 4.74305 1.63772 7.38627 0.488093 -1.60272 -1.17524
1869 1 6.58896 3.67312 7.39542 3.06683 -4.08912 -8.57309
972 3 8.21243 3.40826 5.53695 -0.999189 5.20052 -8.62504
1810 2 8.18124 1.93858 7.26385 -1.06217 -3.31918 6.66379
908 3 4.63723 -0.092952 5.38152 5.04505 -0.717951 -2.26497
912 3 8.35142 -0.0396354 5.51418 3.02075 4.16437 -1.49487
915 3 10.3376 1.9498 5.65568 -0.0485543 -0.838301 -1.76743
976 1 11.9158 3.69245 5.54239 3.70629 -7.54536 0.100767
1814 3 11.9492 1.9246 7.43057 -8.91481 1.01305 -0.175113
1873 2 9.84432 3.41737 7.50454 -0.348066 5.00762 -0.688462
1813 3 10.1283 -0.107228 7.40064 -3.12137 -0.0236117 3.34427
916 2 11.9529 0.125759 5.63947 1.26674 -0.846452 -0.630455
919 1 13.6604 1.76469 5.4446 -3.11246 3.66009 -1.40566
980 2 15.5155 3.76897 5.22304 3.25101 -3.27688 -1.6328
1818 2 15.8246 1.89544 7.31013 0.649772 -3.79077 2.96589
1877 3 13.8558 3.53449 7.06417 -0.694741 -1.50492 3.56828
923 1 17.3735 1.81074 5.55873 2.22184 -3.64811 -0.413894
1881 2 17.3246 3.46414 7.29917 -2.34008 -2.74074 -3.25342
1817 3 13.8083 0.18324 7.21145 1.2278 -0.560227 -4.47423
920 3 15.7059 0.052979 5.34021 2.36058 0.301701 -8.02399
927 2 20.8511 1.98355 5.53835 2.64267 1.82828 -3.46418
984 2 19.1373 3.53891 5.39038 2.40794 -2.03721 -1.35539
1822 3 19.1436 1.89576 7.32522 -1.95854 -3.70811 -0.300004
1885 3 20.9001 3.46562 7.37758 0.178815 3.62909 8.9423
924 3 19.2024 0.128805 5.44591 7.44035 -1.76076 1.62338
1825 3 20.9697 -0.0808506 7.39053 5.9486 4.64157 -3.94489
931 2 24.9469 1.83813 5.40255 0.726079 1.44989 -2.66336
988 3 22.8433 3.47967 5.51283 -0.212652 -1.93892 -0.798339
1826 1 22.6598 1.86673 7.05503 -0.59044 -0.340095 2.03709
1889 2 24.5728 3.5402 7.47102 5.29055 -0.958187 2.75803
1829 1 24.5268 -0.0347766 7.34309 3.91661 -2.85329 -0.964094
932 2 26.4417 0.120309 5.58908 5.14005 5.69342 -0.642154
992 1 26.2618 3.62032 5.62644 -0.0579672 -5.81409 0.934577
1830 1 26.4283 1.93965 7.63508 0.998755 2.92088 4.72782
928 1 22.7616 0.101928 5.59167 -5.59812 -5.48476 -2.43977
967 3 3.0053 5.33667 5.50456 2.14593 6.62835 0.58246
1024 3 1.12837 7.36014 5.53603 6.08634 2.54171 -6.76285
1862 2 1.24698 5.20464 7.20158 -3.28919 4.71672 1.7955
1925 3 3.17302 7.3182 7.09546 -2.25468 7.31519 0.456892
971 2 7.00685 5.67256 5.49456 -1.41222 0.142984 -2.10195
1028 2 4.95423 7.17896 5.31617 0.737954 -0.708634 1.18247
1866 3 4.79896 5.50802 7.18682 -2.18779 3.26099 -3.55079
1929 1 6.64963 7.29428 7.18844 7.61674 -0.0382617 5.29451
1032 2 8.57014 7.23427 5.59427 -1.92629 1.1074 -2.38623
1870 1 8.39368 5.47734 7.56898 3.85308 2.30714 -1.11621
975 1 10.0386 5.23431 5.75763 -1.40656 -1.94844 2.10694
1036 2 12.1012 7.33023 5.55819 -1.95201 -1.0959 -1.1612
1874 2 11.8349 5.35531 7.23845 -1.93029 -0.572387 -1.7268
1933 1 10.2229 7.1433 7.37589 1.20842 3.11497 -5.24338
979 3 13.6143 5.31249 5.55341 -1.9002 4.40274 -0.918818
1040 2 15.4911 6.98852 5.54633 6.27654 0.565792 -3.26014
1878 1 15.6451 5.44509 7.19994 -0.494347 0.718304 2.36548
1937 2 13.7908 7.1478 7.3812 -0.173928 2.3568 -5.96627
983 1 17.5823 5.30032 5.56801 0.368138 -4.34085 1.15365
1941 2 17.4405 7.28628 7.29372 -3.15157 -4.39116 -1.50496
987 3 20.9024 5.36236 5.65339 -5.76142 2.05322 4.31622
1044 2 19.1932 7.13771 5.46494 1.40213 -5.03058 0.783911
1882 1 19.1324 5.40966 7.50173 -5.82604 2.72128 -3.87833
1945 2 20.8623 6.96788 7.5733 4.70326 2.70113 0.76283
1047 1 20.938 8.72443 5.51571 -1.01813 -2.41877 -5.42982
1052 3 26.3874 7.16877 5.41713 -1.74564 -1.05354 5.62731
991 3 24.5152 5.29174 5.50199 0.710905 1.06296 -5.86131
1048 3 22.5809 7.2578 5.6361 -2.83291 2.28608 1.24108
1886 3 22.7018 5.2895 7.22226 0.88828 -4.96773 -2.44451
1949 2 24.3514 7.33995 7.32869 0.375418 -6.77019 -2.27717
1890 2 26.5557 5.35437 7.29411 -0.395965 -6.52473 -4.03621
1922 3 1.15512 8.9265 7.391 2.37883 -3.31494 8.88257
1027 3 3.27385 9.13095 5.51507 4.51242 -1.02105 3.4412
1084 3 1.31375 10.7901 5.48037 4.85833 -4.41463 -2.83608
1087 1 2.75941 12.7736 5.23364 1.50905 1.73967 -0.501422
1982 2 1.24704 12.7507 7.14759 4.78742 -3.06795 5.56948
1985 3 3.11602 10.9507 7.31526 6.5477 -3.97064 -2.90957
1926 3 4.97933 8.94304 7.09012 5.31416 -2.87024 -6.8418
1930 1 8.70216 9.06765 7.45126 -7.32704 1.36127 -1.29766
1031 3 6.74874 8.96721 5.3392 1.29213 2.43448 7.16765
1088 3 4.71152 10.7589 5.36503 -3.24242 0.824331 1.57529
1091 3 6.74998 12.4909 5.33145 0.453515 2.94189 2.28201
1986 3 5.02547 12.5337 7.22274 0.0999199 -0.562449 -3.09066
1989 3 6.71037 10.7832 7.13487 1.02738 -0.0648429 -0.398762
1092 3 8.5975 10.9664 5.51506 -1.68092 0.0875992 -4.5807
1990 2 8.34559 12.7999 7.06813 -1.58322 1.02667 -1.64698
1934 1 12.072 9.04088 7.30044 6.36526 2.64044 0.298858
1035 2 10.3491 9.15534 5.7709 6.04759 -5.4681 -0.982808
1095 3 10.2545 12.7878 5.42686 -3.50932 5.23398 -1.2804
1096 1 11.9911 11.0069 5.42938 -2.14589 -0.899819 3.56709
1993 1 10.3537 10.875 7.27619 -2.75587 2.97413 1.07233
1994 2 11.7781 12.7169 7.50135 -0.982958 -3.64127 4.61733
1938 1 15.6352 8.99056 7.21375 2.47326 -5.18644 2.90712
1039 1 13.9121 9.11535 5.63473 -5.11334 1.50868 -4.18862
1043 1 17.3459 9.0141 5.51311 2.99512 -12.1672 -5.13027
1997 2 13.7685 11 7.36408 -1.06803 -3.385 1.87439
1099 1 14.0614 12.5893 5.67894 1.7477 -0.501361 -4.51537
1100 2 15.579 10.7319 5.37956 1.23992 -2.27058 0.62023
1998 1 15.8392 12.3671 7.2374 0.734789 3.54779 2.71327
1103 2 17.5839 12.4976 5.3505 2.88537 -2.65772 4.09936
2001 2 17.5275 10.5417 7.42134 0.989059 5.04028 1.02936
1942 2 19.2197 8.81555 7.20887 6.08003 -1.14713 3.90442
1104 1 19.2153 10.7664 5.62323 -0.0460471 -0.408209 -4.87756
1107 3 21.079 12.5492 5.61633 -3.29295 -4.07438 -6.73248
2002 3 19.2826 12.6042 7.21439 4.56393 -1.90691 -0.839
2005 3 21.1187 10.8537 7.32796 -3.439 -2.19515 -4.0352
1946 1 22.8627 8.90985 7.34039 5.08969 3.99668 -2.20326
1950 3 26.2528 9.0447 7.21605 2.66568 -5.74003 7.2301
1051 3 24.4644 9.03335 5.27296 -0.467408 -3.77889 -1.2525
1108 3 22.582 10.7304 5.42432 -8.07293 2.40155 -1.06662
1111 1 24.5779 12.2873 5.46214 -4.91906 -0.797182 -7.30072
2006 3 22.8129 12.4435 7.35381 1.3662 -2.19 -2.31487
2009 3 24.5638 10.7139 7.37753 0.470288 -2.9874 4.74337
1112 2 26.3646 10.7669 5.38604 -3.95365 6.18735 6.49446
2010 1 26.3591 12.6407 7.16563 0.148726 2.88333 5.45793
1144 2 0.987064 14.6372 5.26835 8.06841 0.770889 -0.390023
1147 1 2.79268 15.8922 5.38859 5.174 2.49475 -5.50421
2042 3 1.36757 16.3603 7.21406 4.51562 6.06413 3.3145
2045 2 2.99609 13.9301 6.97609 -4.06957 6.12479 -5.4448
1148 2 4.70249 14.2803 5.34216 -0.491118 -1.64793 -1.21211
1151 1 6.21593 16.175 5.35796 -0.886751 -1.27808 2.29431
2046 2 4.76103 16.1582 7.13093 2.73528 1.06608 -4.55092
2049 1 6.58594 14.3175 7.47334 -2.21283 -4.27874 -1.48094
1152 3 8.34195 14.7044 5.45095 -0.346655 -2.19684 6.40799
2050 1 8.19794 16.3774 7.35033 1.40934 -3.46654 -4.70336
1155 2 10.2351 16.1707 5.45399 -4.22994 7.57745 -2.36243
1156 1 12.2445 14.2795 5.65252 -0.59107 9.37508 -5.82016
2053 3 10.1126 14.5656 7.22589 -1.56437 -5.92731 -6.36332
2054 2 11.8844 16.2661 7.16654 -6.73653 8.3849 1.81099
1159 1 13.6863 16.2474 5.49199 1.29073 -1.16111 3.12812
1160 3 15.8059 14.3546 5.34759 3.20104 6.42446 -2.49707
2057 2 14.1231 14.2111 7.17031 -1.44161 0.949689 2.2538
2058 3 15.5849 16.1822 7.10851 -0.802726 -0.209807 -2.22902
2061 3 17.2295 14.3519 7.11672 -2.18407 -4.13024 -0.174716
1163 2 17.4358 16.332 5.42301 -4.46642 -2.58335 2.72546
1164 3 19.325 14.4651 5.55629 -2.43135 0.0621794 -2.53395
1167 2 20.9252 16.1326 5.55294 2.58348 3.51011 7.83467
2062 3 18.9373 16.218 7.09181 -0.0429719 0.610793 -3.37748
2065 1 20.9439 14.3283 7.15128 -4.10291 -3.21763 2.33205
1168 3 22.8205 14.2899 5.40815 2.67967 1.41573 -3.74941
1171 2 24.6334 16.2604 5.40634 -4.01594 1.30731 -2.08214
2066 3 22.598 16.2789 7.28978 1.5083 -2.03522 1.28838
2069 2 24.6459 14.2885 7.10083 -2.51118 -1.40423 -1.22225
1172 1 26.1926 14.3328 5.41747 -2.34153 -1.95164 -4.93481
2070 1 26.3014 16.4274 7.26757 3.88664 4.20858 0.71
1204 2 1.37122 18.1552 5.46267 1.66149 -0.632337 -3.97799
2105 1 2.74401 18.091 7.25043 -4.54581 0.50585 -4.75081
1207 2 2.809 20.0359 5.69201 -3.51839 3.12051 2.31835
1264 1 1.34075 21.7336 5.59996 -2.45615 0.305295 0.47795
2102 3 0.88603 19.8325 7.28159 1.47586 2.2775 -1.65398
2165 1 3.2215 21.6701 7.52276 1.98956 5.47509 1.04836
1208 2 4.55989 17.7811 5.60691 8.31246 -3.61109 8.0378
2109 1 6.53923 17.9545 7.10574 1.22856 1.46139 -6.3437
1212 2 8.25919 17.8643 5.20044 1.30641 -2.048 7.74595
1211 1 6.65815 19.7272 5.17932 -2.65512 4.62233 -6.53254
1268 3 4.51272 21.5372 5.4127 2.53884 2.47017 8.00223
2106 2 4.73213 19.8017 7.16131 -6.1908 0.257801 -1.17601
2169 1 6.52842 21.6329 7.18907 -4.49231 3.15353 1.45527
1272 3 8.34679 21.4844 5.4432 -2.32543 -5.18923 -0.51167
2110 2 8.25215 19.6966 6.92683 3.62024 1.20343 -0.986246
2113 1 10.3132 18.161 7.141 -5.85999 0.71746 3.79993
1216 2 12.2289 18.0063 5.5465 -1.09381 1.84085 -2.53929
1215 1 10.1188 19.7487 5.37496 -2.90395 0.441864 -3.42636
1276 1 12.0977 21.5828 5.29194 -6.4752 0.888039 0.0671572
2114 2 11.9603 20.0169 7.25929 -1.37729 -7.52455 -2.27746
2173 1 9.99612 21.3095 7.3211 0.867533 -3.26525 -1.23536
2117 3 13.9674 18.1116 7.26027 -4.30034 -2.623 -0.595421
1220 3 15.6224 17.9593 5.43605 1.30807 3.84831 4.181
2121 1 17.326 17.9719 6.97771 0.919598 -3.01661 -0.221162
1219 3 13.8033 19.8719 5.36363 1.27212 -0.137382 -0.515231
1280 2 15.403 21.7726 5.56057 2.29227 2.64323 -0.448827
2118 3 15.4447 19.9828 7.25718 -7.23417 -2.53279 -5.56613
2177 1 13.6069 21.5846 7.47453 -0.779486 3.33551 2.82709
1223 1 17.1475 19.8465 5.41046 1.8863 -3.10155 2.37834
2181 1 17.4914 21.6392 7.31487 2.72495 -3.48562 -0.173005
2125 2 20.8507 17.9489 7.1607 6.92008 0.194149 0.915592
1224 3 19.1978 18.1043 5.35139 1.98471 1.88581 0.615921
1227 3 20.8001 19.8604 5.39218 -2.47821 -0.715294 -0.837206
1284 2 19.0864 21.6445 5.51584 -2.84188 1.2946 -2.83655
2122 2 18.7801 19.5785 7.3646 1.11952 8.88811 -1.44639
2185 3 20.7427 21.4641 7.44241 -0.0608461 -0.874508 2.91176
2129 3 24.4948 18.0078 7.43134 -6.62033 1.81074 2.72538
1228 3 22.874 17.9084 5.36669 4.99617 -3.66117 5.60358
1232 2 26.3085 18.3375 5.31871 -5.53722 -1.70627 0.234957
1231 3 24.5957 19.7305 5.59765 -1.99584 0.901424 2.27101
1288 3 22.8049 21.5978 5.50947 2.39543 -6.63645 -1.45399