ITEM: TIMESTEP
119400
ITEM: NUMBER OF ATOMS
13500
ITEM: BOX BOUNDS pp pp pp
-1.7909278119875083e-01 5.3699092781182387e+01
-1.7909278119875083e-01 5.3699092781182387e+01
-1.7909278119875083e-01 5.3699092781182387e+01
ITEM: ATOMS id type x y z vx vy vz
7 3 3.0622 1.85022 1.85258 -0.00283624 -7.86269 -1.6699
64 3 1.38888 3.69638 2.26343 -4.50191 0.897995 1.17994
902 3 1.34045 1.62543 3.62674 0.503424 1.07579 2.02019
965 2 3.43561 3.58296 3.76345 -3.39711 3.4648 -0.18289
2 3 1.13819 1.66998 0.0374327 1.3708 -2.30115 -3.4239
65 1 3.0688 3.80966 0.151717 -1.60999 -2.83681 3.71857
5 3 2.8568 -0.0709057 0.244993 0.0219561 1.38049 -1.50712
4 3 1.10123 -0.0343193 1.77823 -0.715505 -0.766904 0.844321
905 3 3.0491 0.084932 3.60866 -5.62792 0.257744 -2.8858
11 2 6.64137 2.02337 1.83326 -0.872991 -4.36177 4.02728
68 2 4.82899 3.51911 1.9113 3.43702 -2.77976 4.17538
906 1 5.15515 1.70753 3.79531 3.76156 5.79523 0.20925
969 1 6.82737 3.61841 3.72943 -0.690324 -1.85066 10.1067
910 3 8.43034 1.83266 3.58122 0.850096 -4.13793 3.3712
9 3 6.55075 0.0820219 0.335038 -2.37485 1.29686 -0.982776
69 1 6.6289 3.54939 0.169494 0.167278 6.1046 -4.31973
10 3 8.3522 1.53943 0.253726 1.8172 -0.205157 1.39958
6 1 4.88971 1.67797 0.301213 -5.5617 -3.05614 1.41531
72 3 8.4113 3.68848 1.95142 -0.759693 0.545229 -3.34441
12 1 8.48947 -0.138606 2.11031 -2.68495 1.06763 0.12305
8 3 4.82394 -0.0217599 2.06804 -1.06498 -9.35629 3.65998
15 2 10.2776 1.88195 1.83117 -4.9671 -5.2441 -3.38477
76 3 11.9921 3.66654 1.90932 -3.59737 -5.22663 -4.81537
914 1 12.1126 1.94765 3.58609 -6.16265 -6.4892 -1.97788
973 2 10.4326 3.48641 3.6159 3.206 -5.08665 -3.08932
14 3 12.0746 1.83935 0.0248205 -3.62208 -2.93545 -2.92239
16 2 12.2811 -0.0430356 1.77807 2.02669 -1.82849 1.08405
13 3 10.147 0.0954758 0.276621 3.14587 -4.06128 -0.346366
913 1 10.5397 0.0268869 3.40272 3.78832 1.08245 0.816255
73 2 10.1855 3.55052 0.0932629 -7.09944 -1.05559 -3.20189
19 2 14.0249 1.70127 1.74274 4.62843 -4.26176 -1.671
80 1 15.8025 3.75851 1.99716 -3.10215 -6.2739 -4.89575
918 1 15.6036 1.96635 3.60346 0.572056 7.38509 -0.746436
977 2 14.1219 3.86584 3.73265 0.436563 2.79667 -0.383743
81 1 17.3767 3.68476 0.0884124 -1.19696 3.33028 -7.35071
921 2 17.5589 0.294271 3.67347 -1.46014 -4.16352 0.848915
981 2 17.4174 3.58331 3.90056 0.709341 0.996552 3.90902
23 2 17.566 2.00314 1.84568 4.20003 2.58079 0.066447
77 1 14.0144 3.59203 0.339011 -7.27551 -1.28747 -2.03523
17 1 13.8691 0.0374251 -0.130093 0.646438 3.43288 -2.5383
20 1 15.6404 0.182382 1.84328 2.87064 -2.70366 3.57152
917 2 14.175 0.10204 3.77989 8.98601 -0.296698 -6.20514
21 1 17.3016 0.11349 0.280857 0.541021 5.24482 1.41397
18 2 15.6219 1.87938 -0.150178 -4.32667 2.22979 6.61991
27 2 21.1077 1.86854 1.84988 4.0473 2.25363 -4.48774
84 1 19.1315 3.57448 1.97628 4.14394 -3.11835 -2.15765
922 1 19.3421 1.92584 3.73552 8.04311 -2.07437 3.47934
985 3 20.7689 4.00444 3.75342 1.71788 -3.44834 -7.07223
22 2 19.1976 1.81982 -0.0980628 -2.88442 -2.46694 4.69641
925 1 20.8116 0.0499234 3.83989 -10.1532 -2.7057 -5.21281
85 1 20.8387 3.79675 0.17355 -4.91317 0.490659 -3.99582
25 1 21.0538 0.19924 -0.054138 5.80081 -1.80331 3.26868
24 3 19.5161 0.0822116 2.10157 -3.94257 1.41489 -2.24025
31 3 24.487 1.69662 1.97832 -6.0976 1.08217 -2.72293
88 1 22.6615 3.82041 1.81843 0.51602 0.714239 -3.66654
926 3 22.7024 1.65774 3.76343 4.1497 0.0593406 4.1088
989 3 24.5949 3.57364 3.68044 -6.46381 -0.603158 -5.92342
92 3 26.506 3.61765 2.02061 0.935525 4.65518 -0.46016
930 3 26.2328 1.52289 3.64759 -2.30866 3.54668 -2.42507
30 3 26.4455 1.72705 0.208092 -6.35116 0.275234 -1.5979
89 3 24.3505 3.65039 0.43483 5.40585 -3.28355 -6.54392
929 3 24.542 -0.090452 3.67596 1.80742 2.87026 -0.558247
26 1 22.6396 1.87237 -0.0411328 3.0846 -2.75521 -1.68508
28 1 22.614 0.107598 2.02199 -1.93993 3.61169 -1.54651
29 3 24.4219 0.158069 0.200486 0.922663 1.88771 3.85645
32 1 26.6785 -0.00843821 1.82681 5.61075 1.02761 6.47566
67 1 3.09406 5.43761 2.04521 -8.08412 2.086 4.14342
124 1 1.20123 7.19559 2.06454 4.05962 0.253709 2.41507
962 2 1.2274 5.3818 3.94141 -1.89813 2.76963 2.61429
1025 2 3.00011 7.30397 3.65399 4.28338 -5.28113 2.60656
125 2 2.98579 7.19422 0.383328 -2.4886 -6.14721 2.58555
62 2 1.11797 5.39817 0.250296 -3.96854 5.09224 0.0660435
71 2 6.67858 5.37828 1.79469 -1.67491 -8.60371 5.95373
128 2 4.91454 7.12934 2.05735 -3.37133 1.81989 -3.72783
966 1 4.93702 5.42273 3.84992 -0.710999 -2.69462 -0.733379
1029 1 6.77781 7.20901 3.70121 2.94056 0.562177 1.24357
970 2 8.59194 5.43751 3.51108 2.19482 -0.439623 3.21634
132 3 8.58447 7.07635 1.87045 2.69915 -3.39038 7.76802
66 1 4.92076 5.27441 0.262583 -1.15993 -1.55335 -0.69241
129 1 6.6048 7.25463 0.100872 4.7631 0.546483 2.00934
70 2 8.62065 5.4358 -0.0246763 -0.209031 0.972381 1.14902
1030 1 8.51748 8.75138 3.56065 0.283743 2.71215 2.09005
75 1 10.2408 5.47287 1.99142 4.52697 3.50279 -1.96279
136 2 12.013 7.18178 1.88523 -2.41338 -1.83866 5.67411
974 1 12.2207 5.53243 3.80811 1.59487 -3.11486 -2.21801
1033 2 10.3685 7.26187 3.65099 -5.14462 4.2359 3.10755
74 1 12.0456 5.33293 0.125521 4.59225 -0.196825 -0.510266
133 1 10.0935 7.00315 0.0601355 -4.93012 -4.02029 -1.48712
79 2 13.8913 5.44359 1.97577 -4.12024 2.59121 2.47256
140 1 15.612 7.22159 1.89847 1.197 -4.73783 -2.79837
978 1 15.6609 5.56408 3.85813 5.64175 -3.96368 4.81168
1037 3 13.9569 7.23291 3.61336 0.854887 0.345427 -0.572421
1041 2 17.4942 7.22336 3.84864 -3.47626 -1.4712 -6.09792
141 1 17.3771 7.30277 0.0609766 -4.85376 -2.86791 0.781482
83 2 17.5515 5.40079 1.70585 3.55742 4.06674 3.26204
78 2 15.7226 5.68118 -0.0453429 -1.4625 1.37884 -4.27378
137 3 13.9062 7.25936 0.233724 -2.17421 4.0146 1.48245
87 2 20.7318 5.59294 1.96074 -4.32966 -3.34985 -0.786298
144 1 19.2164 7.47966 1.90491 -2.08563 -1.87522 -4.81646
982 1 19.034 5.78409 3.7167 2.65514 3.50141 1.88969
1045 3 20.7988 7.33385 3.7571 -1.56767 6.59814 -2.28018
82 2 19.1725 5.47978 0.0944575 -0.41281 -5.2872 4.64162
145 1 20.991 7.31314 0.246437 2.87813 -0.899091 -0.170444
91 3 24.475 5.41071 1.84725 -5.49738 -0.639591 -1.53893
148 3 22.925 7.16845 1.90874 -1.46621 -6.51361 -0.715794
986 3 22.7455 5.40797 3.66068 -1.78665 -3.19913 4.87329
1049 3 24.509 7.13714 3.59741 2.90056 6.29727 0.343886
990 3 26.371 5.40818 3.72362 1.46849 -4.7049 -2.52932
86 3 22.5561 5.55668 0.0603368 2.71831 -8.04776 0.0210711
90 3 26.1731 5.47021 0.15063 -3.01338 -0.15586 -4.34074
149 2 24.409 7.27238 -0.0593245 -0.0283004 2.09882 2.09051
152 3 26.5382 7.16602 1.86493 -0.351544 1.6678 3.63751
127 1 2.90448 9.1794 2.15846 -2.80497 8.51349 1.51037
1022 3 0.969092 9.12608 3.87981 2.71581 4.66614 -0.0331951
122 1 1.18206 9.14316 0.364866 4.39531 0.00993617 1.16308
184 2 1.20864 10.9041 1.90786 -0.312853 -5.70131 -3.02157
187 1 3.19087 12.7683 2.0203 3.87675 0.771228 -0.412703
1082 3 1.25584 12.6514 3.68045 1.36823 7.20429 -1.60204
1085 2 2.71834 10.7967 3.57525 -0.564332 -1.66918 -3.87409
182 2 1.31756 12.7749 -0.031537 3.09162 3.79988 2.96299
185 2 3.30032 10.8067 0.248134 -1.76916 -2.70779 -4.43449
1026 3 4.85091 8.99755 3.46509 -5.07948 1.43152 1.68796
131 2 6.61027 9.06461 1.70351 -8.86202 -0.62443 -0.655767
126 1 4.71984 9.0443 0.153968 1.52862 6.19688 0.779673
188 3 4.91839 10.7784 1.75932 3.72248 5.2005 1.1297
191 3 6.88986 12.5927 1.93372 -10.0735 4.86248 -1.28303
1086 3 5.24497 12.634 3.49617 6.50098 -3.22181 0.198272
1089 3 6.7254 10.5953 3.45598 3.19625 -0.90906 -1.09056
192 1 8.5121 10.8569 1.91689 2.02345 -1.10824 3.20654
1090 3 8.41312 12.446 3.72761 1.07037 5.85299 -1.0411
189 1 6.73362 10.9455 -0.0919357 1.10547 0.886573 -4.14744
190 2 8.46832 12.6172 -0.0570022 -0.802242 -2.74803 -2.53902
186 2 4.83966 12.7376 0.167009 2.46166 1.57648 3.66362
130 1 8.4913 9.24709 0.0903428 4.34447 4.69613 -0.306545
134 1 11.7702 8.90466 -0.0972788 2.469 3.91511 -5.35214
135 3 10.1931 9.01009 1.71448 6.79317 5.04196 1.00023
1034 1 12.1588 8.99834 3.62271 5.01698 2.94145 0.338729
195 3 10.2255 12.6847 1.80838 2.38114 -0.550434 -0.216669
196 3 11.9574 10.9008 1.90269 -0.0184543 -2.04594 2.7661
1093 2 10.2161 10.9716 3.63862 0.91986 -5.77427 -2.42838
1094 3 12.1801 12.6974 3.58194 -1.09468 -4.05462 -2.62964
193 2 10.3136 10.8394 0.0997619 1.7098 1.69309 -2.12239
194 1 12.0007 12.437 0.103921 1.13962 -8.96259 -4.07502
143 2 17.4443 9.04835 2.00024 4.59021 -0.145142 -1.28803
139 2 13.8321 9.10444 1.90316 4.88873 -1.60609 -3.69698
138 3 15.5289 9.27123 0.260997 1.73335 0.074425 1.47018
1038 3 15.6965 8.90124 3.66899 -1.4475 -4.44769 3.6201
199 3 14.0017 12.6258 1.87156 -0.0546429 -3.43089 -1.67568
200 1 15.7469 10.9762 1.90969 2.50864 1.9657 0.903257
1097 2 14.0038 10.8039 3.56894 2.93505 0.895559 1.86614
1098 3 15.7436 12.7569 3.74897 0.688553 4.5958 -1.07379
203 1 17.5599 12.5815 1.73295 2.48062 -1.38872 0.033189
198 3 15.7782 12.5558 0.0685161 -2.18491 0.566694 1.73947
1101 3 17.4267 10.6705 3.63005 9.45346 4.3127 -2.14942
201 2 17.39 10.6159 0.0971062 -2.58602 0.335049 3.58875
197 2 14.0286 10.9475 0.197702 -3.02856 -2.43835 -4.32629
142 1 19.4864 9.05049 0.180604 -4.23414 3.95816 -3.48538
147 2 20.8565 9.25576 1.77943 -0.388991 -2.0645 -2.94998
1042 1 19.0501 9.09153 3.88017 1.42018 -3.28199 -2.65311
204 2 19.0981 10.7902 1.77735 -5.19256 -3.25537 -0.21697
207 2 21.0115 12.7064 1.93081 5.32957 2.83765 -5.95334
1102 1 19.156 12.4474 3.80434 5.29485 -0.515792 -3.39029
1105 1 20.8933 10.8235 3.67112 -1.16458 1.14902 2.66754
202 1 19.1716 12.7627 0.213891 0.556852 -9.75319 -2.28581
205 1 20.9985 10.9716 -0.00175355 -1.49312 6.31814 10.1705
150 3 26.3512 8.91865 0.051737 2.33117 6.20854 1.97241
146 2 22.6469 8.95842 0.00105302 -0.292108 3.82117 3.86964
1050 3 26.4078 9.05399 3.7816 -3.01084 0.641019 -3.40691
1046 2 22.7795 9.08864 3.55077 -1.66497 1.50229 1.7842
151 3 24.5571 8.93875 1.8005 0.928876 1.26441 5.78204
208 1 22.6505 10.6674 1.71144 4.39468 0.553626 2.54326
211 1 24.5379 12.6088 1.94371 -3.66501 3.34237 5.26572
1106 2 22.7562 12.4373 3.56928 -5.76383 -3.29728 5.88852
1109 3 24.6433 10.7878 3.57392 1.91225 -2.18528 -4.0229
210 2 26.3534 12.5916 0.0840898 3.25122 5.95536 -1.19818
206 2 22.9586 12.6327 0.0941104 -7.13086 7.92122 3.80162
212 2 26.3876 10.8564 1.92884 4.45595 6.67302 -0.289157
1110 2 26.4152 12.5265 3.64298 8.12683 -3.57751 3.66517
209 1 24.7871 10.895 0.219625 -1.96822 -3.53373 0.940263
244 2 1.43347 14.6115 2.06796 2.43298 1.18599 0.243127
247 2 3.22351 16.326 1.88205 0.157042 0.0785953 -3.06925
1142 1 1.23322 16.4332 3.69722 1.47191 -1.49079 2.08729
1145 2 2.99264 14.4388 3.61641 1.16858 6.28634 3.61495
245 1 3.12934 14.4126 0.262055 4.25979 4.55798 -0.463167
242 1 1.54584 16.2087 0.0600506 1.63294 0.424801 2.61777
248 1 4.83302 14.6604 1.95442 -0.942067 -4.15404 6.31913
251 3 6.62731 16.1219 1.76612 3.23293 4.05359 2.42385
1146 1 4.80054 16.0776 3.70561 -0.335034 0.758211 -1.42096
1149 2 6.84131 14.4861 3.79281 -2.19936 0.338018 0.0211891
1150 1 8.50318 16.5338 3.69808 2.41224 -1.22241 -4.40752
252 3 8.43234 14.5775 1.78196 -0.284526 0.0341386 -4.51394
249 3 6.62477 14.2521 -0.0692027 -1.11156 -0.977298 -5.16939
246 3 4.95696 16.002 -0.0792264 2.84625 -2.04637 -7.07858
255 3 10.5548 16.334 1.77154 -1.06433 -6.16385 -0.0800028
256 3 12.163 14.3551 1.65158 -7.08466 -2.94099 -8.3485
1153 3 9.92005 14.3819 3.47721 0.551122 4.1916 3.99042
1154 3 12.1948 16.0734 3.52579 -5.19177 -4.80137 1.6404
254 3 12.1464 16.2464 0.0302932 -1.57797 1.51068 -3.65014
253 3 10.1904 14.486 -0.140027 1.83627 -2.40694 1.96855
259 3 13.9288 16.1845 1.62322 -7.64786 -3.11566 1.19947
260 2 15.6642 14.4144 1.92186 1.18556 -4.23042 -1.75378
1157 3 14.0107 14.4365 3.65744 -4.91283 6.38826 4.28924
1158 1 15.7815 16.2488 3.5985 -6.44441 -0.581098 -0.238602
263 1 17.3979 16.3709 1.76642 6.29457 -4.70568 -3.84223
1161 3 17.5086 14.4631 3.46488 4.39204 -5.78984 -0.096405
257 1 13.8674 14.2851 -0.0324606 -0.238427 -2.27648 -1.26266
258 2 15.8362 16.2508 -0.00637871 -0.606426 10.052 -0.545053
261 1 17.3605 14.6647 -0.0158104 -7.43619 -0.583389 -10.3576
264 3 19.239 14.5701 1.87326 -0.798828 2.02748 -7.15166
267 3 20.9624 16.1525 1.71732 2.74185 0.422199 5.02167
1162 1 19.2251 16.5557 3.48151 -0.698003 -1.23031 -3.81273
1165 3 20.9616 14.4616 3.58234 -3.05637 0.275507 5.4751
262 2 19.1851 16.4221 0.105411 -0.687418 -5.74882 2.79734
265 1 20.9591 14.3794 -0.0336935 0.706263 1.0226 -4.6164
268 1 22.5545 14.2554 1.77583 0.206061 -2.92345 0.786541
271 2 24.5389 16.0804 1.54225 3.02266 5.43441 5.15261
1166 3 22.6554 16.1947 3.60228 1.03538 -3.34694 2.73405
1169 2 24.4368 14.5096 3.53317 4.13579 5.33061 -2.91518
1170 1 26.2375 16.2226 3.37879 0.821653 -0.476833 0.299063
266 2 22.5982 16.235 0.0855015 0.559099 -3.61163 -5.47168
270 3 26.4669 16.2996 -0.141184 3.8229 -3.04544 -6.45703
272 1 26.327 14.5345 1.76645 -2.70885 1.80212 2.20982
269 1 24.5556 14.4118 0.191132 2.59227 -1.05351 3.53036
304 1 1.29871 17.9507 1.99868 -2.79366 1.85903 -5.10588
1205 1 3.02744 17.8728 3.88473 -2.10648 3.70658 -4.48551
305 3 3.21061 18.2501 0.276615 -0.417515 -3.02744 6.37255
307 2 3.07235 19.9553 2.18676 0.960523 -6.21914 -1.21535
364 3 1.17308 21.633 1.89182 1.37875 3.86722 0.561854
1202 1 1.34524 19.8899 3.76257 5.5093 -1.38925 0.60182
1265 2 2.94452 21.7003 3.76686 0.286639 -4.16035 -0.0328334
302 3 1.22017 19.6487 0.000901305 -3.77197 -5.28488 -1.75509
365 1 3.14174 21.6062 0.200721 3.22326 1.43891 4.55662
1209 2 6.54357 17.879 3.42194 -1.03333 1.13108 -0.760602
312 3 8.31536 17.8311 1.63168 -1.87811 -1.04238 -4.6022
308 1 4.79765 18.0466 2.02977 -0.400829 -3.3306 -0.941703
309 2 6.64683 17.8762 0.0521405 2.95483 0.93147 -4.45707
311 1 6.56005 19.8356 1.92687 -6.75748 -2.06166 9.1242
368 2 5.04684 21.6223 1.86881 -0.537304 -4.75232 0.818239
1206 1 4.9766 19.755 3.70491 -0.68415 -0.34554 -1.5623
1269 2 6.92268 21.5306 3.58267 6.30371 -4.06194 -0.61263
310 1 8.47041 19.7985 0.157741 -0.63996 2.67182 -0.238564
372 2 8.4802 21.5917 1.80532 -3.88069 -4.005 6.85641
369 1 6.6851 21.5888 0.257393 -0.758128 2.14617 -3.72008
306 3 4.91567 19.8187 0.0171557 -2.83574 -1.87545 -8.93924
1210 2 8.33251 19.6245 3.54319 7.70246 -7.26703 1.9529
316 3 12.1421 18.001 1.81511 0.238973 -2.76995 3.89744
1213 1 10.2585 18.1207 3.7451 1.71009 5.5477 -1.31926
315 2 10.3159 19.744 1.79199 -8.94283 1.13815 -8.55699
376 2 11.9911 21.4943 2.00106 -5.96559 -0.26966 -6.98271
1214 3 12.1962 19.6077 3.64382 2.09161 -4.31675 -1.77811
1273 1 10.0892 21.4622 3.6812 -2.30694 -1.17496 -2.11406
373 1 10.436 21.5049 0.121828 -5.60318 2.59781 -3.35432
313 3 10.4091 17.9146 0.245705 -0.153906 1.83095 -0.627931
314 1 12.0219 19.8369 0.0997298 -3.33886 1.72074 3.09137
1221 2 17.1879 18.2066 3.52195 -0.497428 1.67295 -1.21643
1217 3 13.9437 17.9337 3.6274 -2.11209 -0.144028 3.7194
317 2 13.9539 18.2319 -0.15103 0.787962 -3.91795 -0.559295
320 1 15.523 18.1568 1.59556 -5.56875 -0.167346 -3.25981
319 1 13.785 19.852 1.80526 2.61593 -5.5366 7.378
380 2 15.5139 21.5305 1.78454 5.10886 -0.284096 -0.954192
1218 2 15.613 19.9166 3.6177 3.7312 4.27559 -2.65658
1277 1 13.8993 21.5211 3.58732 -3.7551 0.721024 4.82314
1281 1 17.2807 21.4337 3.6625 -1.8079 0.0946292 2.21494
323 2 17.2779 19.8184 1.7181 -6.35089 -0.877503 -0.0547338
318 2 15.6043 19.8634 -0.0335883 -5.81806 -8.17577 -2.05824
381 1 17.4274 21.7476 -0.051994 -4.79198 4.13416 -5.36946
377 3 13.7675 21.6914 0.0479796 4.03727 0.934132 3.91818
1225 3 21.0688 18.0122 3.6241 -1.63775 -2.35746 -0.159841
324 1 18.9234 18.0092 1.61539 -2.01847 -3.77975 -0.401658
327 1 20.9312 20.0236 1.87034 0.0151744 1.31806 0.861208
384 2 19.0634 21.5404 2.02634 -4.73683 -5.92783 4.89336
1222 3 19.2073 19.6473 3.51636 1.63243 -2.35068 -0.572636
1285 1 20.9326 21.6843 3.53383 -2.08178 -0.280187 -0.000707151
385 3 21.1938 21.7875 0.0272934 1.10946 0.219566 -5.09068
325 3 21.0318 18.13 -0.00747007 -3.03406 3.64043 3.7736
322 1 19.2218 20.0123 0.0281834 -0.0012505 1.27656 1.52022
328 3 22.513 18.0827 1.83146 -2.97688 -0.512325 -0.811786
330 2 26.1306 19.9803 0.237071 -0.681052 -5.79171 1.24541
332 1 26.6218 18.1253 1.81188 -1.43406 -3.82317 2.97639
329 3 24.3356 18.1108 -0.0853687 -6.92437 1.3383 1.2074
1229 1 24.5801 17.9655 3.62068 4.84251 -1.04939 -2.85914
331 1 24.3364 19.9902 1.87678 -1.8475 -5.88312 -10.1084
388 2 22.5923 21.8593 1.87093 -3.03698 -0.822036 3.59057
1226 2 22.7133 19.8772 3.49366 -6.11024 2.53623 -8.39091
1289 1 24.7055 21.646 3.69336 -2.34531 1.1817 -0.847141
1230 2 26.2176 19.8 3.63719 -2.32418 -2.48778 4.47603
326 3 22.6865 19.8061 0.0794661 7.80879 -5.1638 0.319067
389 3 24.4999 21.628 -0.0543977 0.755428 0.431338 -0.942142
392 2 26.3284 21.619 1.71125 -3.29611 -2.04292 -3.06182
367 3 2.88268 23.4358 2.12806 -2.59984 -4.08286 4.6717
424 1 1.23278 25.2325 1.99449 -5.60412 -2.86828 -1.55526
1262 3 0.95124 23.3242 3.74384 2.79109 5.46411 -9.00074
1325 2 3.17253 25.1258 3.66875 -1.85829 0.304325 -0.840967
362 2 1.16584 23.4784 0.0520909 -2.19346 0.891859 4.8112
425 1 3.11353 25.0204 0.209266 0.967769 2.86796 1.50889
371 1 6.70954 23.3757 1.79764 0.356019 7.78657 -0.176597
428 3 4.92903 25.0367 1.93787 1.59688 -0.0151724 1.1848
1266 3 5.02581 23.2412 3.74628 -2.56715 3.33345 -0.332641
1329 2 6.68656 25.1552 3.58398 -1.31016 -1.87769 2.89795
1270 1 8.72838 23.5236 3.54305 -3.82574 -4.32612 -2.62954
370 2 8.52247 23.2506 0.0716563 2.14572 5.44123 -0.950512
432 3 8.48328 25.0351 1.76893 -3.93415 -0.572217 -1.55522
366 2 4.96694 23.529 0.0115774 4.19437 -0.453367 2.66674
429 2 6.71525 25.2049 -0.0842442 -2.16169 -2.82647 1.05843
375 1 10.2351 23.1759 1.96783 0.89113 -5.56287 3.53961
436 2 12.3679 25.2015 1.78775 -2.89117 0.246785 3.45407
1274 1 11.9531 23.1862 3.82375 3.34972 -2.42771 -1.3716
1333 2 10.3375 25.2007 3.45563 0.829056 -0.995217 -4.57806
374 1 11.9412 23.212 0.0319739 -0.706106 0.605574 5.89571
433 2 10.6108 25.1926 0.347941 0.502372 -2.82763 1.90146
379 1 13.7912 23.2404 1.69974 0.591146 7.60936 0.914206
440 2 15.4712 25.33 1.94793 2.47439 2.02421 2.63206
1278 1 15.5353 23.1808 3.71507 -0.0599655 -1.20484 2.33481
1337 2 13.7953 25.0949 3.89078 -1.9617 -1.09764 6.99461
383 3 17.5134 23.6289 1.77835 4.3661 -2.17206 0.639632
437 1 13.6419 25.2743 0.0442242 -2.34459 -3.15096 0.603108
1341 2 17.0065 25.4175 3.6434 -1.56601 1.68914 6.23085
441 1 17.3671 25.4592 0.184176 6.60377 -2.28393 1.59751
378 2 15.5624 23.475 0.13825 3.59911 -0.176741 2.23912
387 1 20.8913 23.5577 1.82141 -0.175797 -1.24742 1.37077
444 2 19.0242 25.575 2.14279 0.921257 1.96798 4.58746
1282 3 19.0127 23.509 3.42435 6.40674 1.30978 0.781074
1345 2 21.0168 25.1133 3.54067 -1.95712 4.8143 -4.96422
382 2 19.1592 23.423 0.145747 4.41557 5.53662 -0.238654
445 3 20.9085 25.2216 0.188752 2.33432 -0.713906 2.3707
391 1 24.732 23.2453 1.73545 4.78283 -5.65808 -5.52884
448 1 22.8417 25.1069 1.99636 -2.01691 3.12537 7.03215
1286 2 23.0921 23.4083 3.46806 5.08832 4.10551 1.49091
1349 3 24.6954 25.0779 3.48121 6.49704 0.583547 6.53695
1290 3 26.3572 23.5235 3.48546 2.53344 -3.13189 7.52455
452 3 26.4218 25.2436 1.80254 0.398411 2.66332 -0.23526
390 3 26.2686 23.6292 -0.0561168 -0.967882 -0.589372 -1.8516
449 3 24.8068 25.286 -0.142501 -0.686712 0.295993 -4.1786
386 3 22.797 23.5247 0.0128152 2.27843 -1.81733 0.968232
907 1 3.22053 1.65453 5.67519 3.52098 4.6009 5.37009
964 1 1.47387 3.66607 5.33241 -3.95886 2.26329 1.64219
1802 2 1.20545 1.9239 6.94864 -9.14773 4.55767 2.27465
1865 1 2.99647 3.72209 7.11829 2.29147 1.94909 4.62404
904 1 1.39665 0.058943 5.7181 2.26815 0.712883 6.79539
1805 2 3.39508 -0.0921722 7.33048 -6.99983 4.21567 -1.02129
911 3 6.8801 1.93122 5.48398 0.659964 -6.19833 5.7686
968 2 4.90157 3.54195 5.36584 2.01565 -5.15133 0.270342
1806 3 5.24239 2.00357 7.39807 2.04683 4.33678 0.376399
1869 1 6.58008 3.84612 7.25082 -2.75742 -7.49663 1.28254
972 2 8.77511 3.65514 5.27424 -1.1493 0.986138 -5.12032
1810 1 8.5362 1.93885 7.33211 -2.86688 0.698125 3.45724
1809 3 6.54521 0.163414 7.16582 -4.90799 0.158798 -4.44326
912 3 8.66521 0.068977 5.39812 -0.788479 3.95232 -1.52507
908 3 4.94581 -0.0385608 5.39731 1.23411 1.19094 0.796348
915 1 10.3903 1.87054 5.37525 3.01943 3.22796 1.27458
976 2 12.1114 3.86911 5.62889 2.17261 -1.3464 -10.4465
1814 2 12.2996 1.76519 7.22018 1.97045 -1.44316 -5.43416
1873 3 10.2973 3.61084 7.372 -7.24528 -1.39797 0.888774
1813 2 10.5259 0.209648 7.07437 5.73604 1.89559 1.52426
916 3 12.1633 0.132305 5.33505 -0.767349 3.0884 -2.12946
1817 3 13.9228 0.0403666 6.9871 -1.35818 0.282537 -1.55475
919 1 13.9229 2.13207 5.31974 3.6511 -4.69771 0.667991
980 2 15.7423 3.66013 5.73502 3.8394 -1.39665 1.7638
1818 2 15.464 1.69218 7.13685 -9.4185 -3.26112 6.6987
1877 1 14.0961 3.52543 7.34422 -0.996227 4.32458 6.14898
923 1 17.4609 1.92481 5.324 6.73758 7.30726 -1.66877
1881 2 17.5177 3.75279 7.35607 -0.251583 1.12009 1.17114
920 3 15.8414 -0.0327477 5.3344 -3.12833 2.71575 1.81012
1821 2 17.6207 0.269463 7.23519 -2.7035 0.761815 -0.454002
927 2 21.0188 2.25063 5.35604 -4.4857 3.34961 4.4477
984 2 19.2823 3.79834 5.42875 -0.0659684 1.5872 -5.98025
1822 1 19.1794 1.96574 7.15043 -2.17179 0.177191 0.31101
1885 2 21.1803 3.63902 7.35951 2.20336 3.05442 3.03452
1825 2 20.8039 0.127498 7.17789 1.65492 -2.3201 -4.11331
924 3 19.1745 0.0962823 5.36332 -2.47733 3.35378 -1.28513
1830 1 26.4415 1.90142 7.28755 3.29705 -0.746297 0.238034
1829 1 24.4329 0.0895067 7.11084 -5.57067 0.291398 -0.228467
931 2 24.677 1.80398 5.66011 -0.200298 0.353712 4.38093
988 3 22.9953 3.36724 5.359 1.08328 0.43853 -3.98783
1826 1 22.9308 1.84278 7.17233 -6.76785 -0.796859 -1.43246
1889 2 24.5114 3.57967 7.27343 5.15106 1.34124 5.65227
992 1 26.2691 3.75926 5.45138 -3.10164 2.37795 -2.51458
928 3 22.5574 0.0056851 5.5731 -2.61072 0.539669 0.52762
932 1 26.3211 0.0406396 5.70308 2.00135 0.340181 -0.816805
967 1 3.13093 5.45988 5.39794 -3.80083 -0.0202424 -2.63499
1024 3 1.29241 7.27064 5.57936 4.82872 -4.84302 2.2024
1862 2 1.2912 5.45571 7.21036 -0.662602 1.45106 -4.90919
1925 3 3.18559 7.16533 7.3703 2.44344 2.57609 4.24015
971 2 6.62198 5.0637 5.4066 -1.41012 -1.79071 0.263131
1028 2 5.08954 7.22868 5.25142 -7.5496 4.3593 3.18678
1866 1 4.91167 5.48083 7.27247 -0.967253 1.8388 -4.0231
1929 3 6.86575 7.16045 7.31935 -4.23711 -0.217165 -2.13868
1032 2 8.32755 6.94848 5.3792 -1.31453 2.51409 -0.238123
1870 1 8.50573 5.36601 7.41164 0.93877 2.29228 -0.929973
1926 3 4.87295 8.62597 7.22913 -1.06873 -1.20189 -1.14827
975 1 10.2642 5.41095 5.16212 -6.24462 -2.8457 -0.834771
1036 1 12.0806 7.34014 5.33198 -1.74904 1.58469 -4.94548
1874 2 12.0503 5.50779 7.25703 1.77425 -4.6151 0.578973
1933 1 10.3053 6.99971 7.12585 -6.45405 3.05799 -7.66758
1934 1 12.1214 8.6818 7.31267 0.0827328 4.90182 8.05973
979 1 13.7898 5.5612 5.63041 2.3794 -0.889853 0.342304
1040 2 15.7991 7.1381 5.56365 -5.15195 -5.30624 -2.79062
1878 3 15.7115 5.47173 7.45103 9.8673 5.20715 3.40468
1937 2 13.7351 7.17357 7.5186 -2.34758 -3.71794 2.67908
983 1 17.4815 5.40271 5.43565 0.341755 -4.83329 1.61129
1941 3 17.5464 7.10056 7.22255 -9.99418 3.13393 -6.34714
987 1 20.9736 5.53645 5.54586 2.15635 2.93583 -1.07331
1044 2 19.1605 7.29261 5.46917 2.27549 -1.09202 3.79744
1882 3 19.1859 5.47069 7.44812 -6.84798 6.62542 -0.439327
1945 1 21.2844 7.27345 7.27476 3.64842 5.66734 -2.25442
1052 3 26.2398 6.99867 5.49073 2.2314 -5.62788 4.53717
991 3 24.5042 5.29178 5.28471 2.57216 1.877 -4.08816
1048 3 22.8734 7.47607 5.38914 2.15036 0.673707 1.4948
1886 3 22.8796 5.25308 7.16043 -7.03406 -2.11996 1.01465
1949 2 24.627 7.06851 7.22158 4.2685 -0.98032 5.15657
1890 2 26.4826 5.15165 7.07558 2.40208 -0.266183 0.27962
1027 3 3.15112 8.89436 5.48433 4.97632 -3.31591 1.599
1922 3 1.32295 9.0627 7.45565 5.52078 3.60432 -2.47604
1084 3 1.21872 10.8791 5.79105 -0.656776 0.177738 5.89447
1087 1 3.16657 12.4894 5.19142 1.887 -6.50734 3.44089
1982 2 1.26384 12.7852 7.31518 1.76448 -3.87678 -2.1914
1985 3 2.95751 10.832 7.37917 1.88507 -2.55788 -0.789676
1031 3 6.81085 9.00123 5.7188 -5.96944 -3.28416 -0.256275
1088 3 4.84576 10.7211 5.33656 1.81726 -1.45765 2.0271
1091 3 6.60266 12.5646 5.34525 -1.11192 2.36748 -0.806253
1986 3 5.00806 12.3707 7.17232 -7.00062 -0.158001 0.090176
1989 3 6.99346 10.8228 7.34253 2.75362 4.27157 -0.713848
1092 3 8.40959 10.6801 5.26985 -3.14056 0.401382 3.64539
1990 2 8.55822 12.4964 7.03572 -2.22707 -3.14132 0.98605
1988 3 5.02724 10.5824 8.77752 1.21859 -0.70327 -2.87751
1930 2 8.86908 8.96328 7.24943 3.51996 6.28 -1.41567
1035 2 10.2268 8.91519 5.4133 2.11822 -2.29844 2.88438
1095 1 10.2947 12.7168 5.5015 1.86246 -1.39191 2.26821
1096 3 12.2377 10.8331 5.19644 -3.62351 2.01823 -0.641658
1993 1 10.6742 10.7162 7.29842 -1.07591 -4.37001 0.301529
1994 2 11.95 12.7888 7.00303 3.14054 1.84365 -1.59711
1938 1 15.7725 9.01609 7.20113 -3.34658 -2.51471 1.06423
1039 1 13.9967 8.97138 5.35551 4.32292 2.31186 -2.09536
1997 2 13.5997 10.6643 7.00455 -3.3008 2.23961 4.26828
1099 1 13.7228 12.533 5.3341 0.23248 0.0125886 -4.66332
1100 2 15.6702 11.0098 5.53759 -1.22215 1.70695 -1.7284
1998 1 15.28 12.5338 7.19892 1.40182 -0.347492 1.35843
1103 2 17.4944 12.7021 5.49277 -1.92228 -5.7853 5.3293
2001 1 17.4503 10.905 7.44846 0.384428 -2.11272 -0.58223
1043 1 17.3135 9.08029 5.59901 3.67515 8.236 -4.69081
1942 2 19.1734 8.90235 7.33354 2.01265 2.60401 1.23923
1047 1 21.0631 9.16604 5.55223 -4.13113 -1.31325 2.75876
1104 2 19.2476 10.863 5.38033 -0.903697 -4.10799 -9.06591
1107 3 21.0289 12.5795 5.24524 0.696288 -3.61991 2.29035
2002 3 19.4357 12.9075 7.19814 -1.76797 -4.56434 2.03016
2005 2 20.9403 10.6374 7.15392 9.33702 -1.31208 -1.55201
1112 2 26.2824 10.8447 5.54123 -1.80504 2.55043 5.83859
1950 2 26.2768 9.16017 7.12536 -1.07511 3.89582 -2.43301
1946 1 22.8101 9.10044 7.28106 -3.00345 1.79625 2.85559
1051 3 24.6208 9.07731 5.32368 3.80036 -0.553214 1.40869
1108 3 22.809 10.9103 5.31332 2.71838 -0.568882 0.412212
1111 1 24.4076 12.811 5.41538 -2.65733 1.79031 2.11139
2006 1 22.4987 12.6889 7.31283 1.45244 2.64292 2.44936
2009 2 24.2901 10.7271 7.08433 -0.648635 1.12499 -8.18723
2010 1 26.4731 12.6642 7.0065 1.64393 2.93468 -5.46784
1144 3 1.25132 14.1827 5.46764 1.10747 -1.38838 -5.29384
1147 1 3.00258 16.1352 5.60859 0.197464 -1.19372 6.85538
2042 2 1.1171 16.0257 7.22914 3.54047 5.16853 1.33242
2045 2 3.17639 14.1828 7.29605 -2.08787 -5.4069 3.04394
1148 2 4.92679 14.2265 5.34232 4.07627 1.43671 2.02784
1151 1 6.80392 16.1843 5.36479 2.62777 1.0327 0.113866
2046 1 4.96333 15.8861 7.13557 11.1816 0.693425 -1.10994
2049 1 6.75785 14.1261 7.44554 6.254 5.46915 -0.569091
1152 3 8.50354 14.2815 5.44438 4.41 4.24313 2.76621
2050 3 8.48739 15.9603 7.04147 3.41067 -0.464777 -0.598604
1208 2 4.83308 17.7767 5.4189 -5.10226 4.05899 0.986459
1155 2 10.3488 16.2717 5.2051 -0.706006 -3.39404 5.98282
1156 3 12.2393 14.6092 5.4133 -5.54405 -0.544382 0.494733
2053 2 10.1497 14.2263 7.41029 -1.70187 -4.08785 -0.201492
2054 3 12.077 16.457 7.15925 -1.66265 3.88259 -1.09055
1159 3 13.9316 16.245 5.47228 -2.73619 -10.0112 -2.54939
1160 3 15.56 14.2939 5.56319 5.14704 -6.22206 1.62512
2057 2 13.8261 14.4897 7.17916 -4.12632 4.1402 0.402486
2058 3 15.724 16.2641 7.30655 -2.81926 3.03751 0.986846
2061 3 17.5171 14.3154 7.09777 1.39085 -2.40351 -0.984343
1163 3 17.5999 16.2832 5.39884 0.410681 -2.0872 -1.46324
1164 3 19.3925 14.5083 5.36478 -4.37047 -2.21578 -0.577834
1167 3 21.0584 16.2096 5.32445 1.27519 4.31107 1.8636
2062 3 19.2484 16.2798 7.25938 6.31071 -5.17127 -0.0388759
2065 2 21.3287 14.5844 7.29391 -1.48594 2.89164 -4.95632
1168 1 22.8032 14.6145 5.35176 2.79304 -0.858675 1.06322
1171 2 24.5687 16.2422 5.30974 -0.545362 -4.06582 0.115273
2066 3 22.8434 16.2193 7.11671 1.28295 -3.3552 3.64128
2069 2 24.6672 14.4517 7.04846 0.859811 0.0035768 -2.30601
1172 1 26.3427 14.3197 5.08383 -2.06071 -1.77087 -0.933335
2070 1 26.3047 16.2049 7.07102 2.97579 -1.50425 -1.26113
1204 2 1.34046 18.1093 5.48779 2.75087 -3.67378 -2.33321
2105 1 2.94814 18.061 7.42812 3.26605 -3.50039 -2.87959
1207 2 3.04774 19.8758 5.30879 1.206 -1.6755 -5.21769
1264 1 1.31924 21.6625 5.4917 -3.40089 -2.56359 -1.64991
2102 3 1.36209 19.8263 7.20677 0.10583 1.05429 8.39636
2165 1 3.02113 21.7732 7.36776 2.16371 -0.733239 1.622
1212 2 8.41922 17.9235 5.60684 -4.0631 3.19562 2.04975
2109 1 6.34692 18.0109 7.23248 -0.622136 -2.98174 -2.93172
1211 1 6.55298 19.7124 5.4191 -1.62426 2.96432 4.48597
1268 3 4.68939 21.6253 5.43809 -1.66632 -5.63181 1.17979
2106 2 4.72156 20.0179 7.39198 1.91634 0.627868 -1.37718
2169 1 6.74398 21.4411 7.16123 -3.17246 -2.35854 5.10812
2110 2 8.57702 19.7695 7.2644 0.322092 1.5174 -1.43233
1272 2 8.3802 21.3706 5.47057 -2.3945 -2.92308 1.87868
2113 1 10.1579 17.8815 7.15574 3.93167 0.313677 -3.0321
1216 2 11.8391 18.0522 5.49884 3.16071 -0.577124 -7.06134
1215 1 10.2885 19.7326 5.60443 -2.30393 2.21384 -3.04389
1276 3 11.9589 21.4782 5.4821 -1.51685 -0.958373 0.559649
2114 2 11.9413 19.8721 7.15755 1.99903 4.8072 7.66241
2173 1 10.1742 21.6579 7.1532 -9.05545 -3.73032 0.274404
2117 3 13.7862 18.1221 7.25228 -1.25766 3.9311 -0.802308
1220 3 15.6971 17.9681 5.45673 -3.10903 4.23952 -2.16424
2121 3 17.419 18.1801 7.33844 1.62477 -3.08523 0.470773
1219 3 13.9453 19.8504 5.55901 4.96203 -1.9946 -3.74819
1280 2 15.5449 21.6321 5.64275 5.35919 2.47569 -2.00069
2118 1 15.7047 19.9712 7.25176 -2.28704 -0.356827 3.07556
2177 1 13.5397 21.8609 7.40845 -1.08182 -0.286041 2.2278
1223 3 17.4334 19.8018 5.44394 0.36631 2.48812 2.00541
2181 1 17.5572 21.7393 7.21633 1.5844 2.04906 0.393694
1224 3 19.3112 18.1052 5.48608 -1.54791 -1.01128 2.22751
2125 3 21.0154 18.0012 7.39627 -2.95383 7.17134 2.26638
1227 3 21.0721 19.9274 5.29068 -0.517647 -2.11866 -0.460539
1284 2 19.0987 21.5716 5.28178 -4.69956 -0.95221 2.69914
2122 2 19.2292 19.8863 7.08766 3.20099 4.56453 -8.76507
2185 3 21.0629 21.4662 7.15105 -0.0388055 5.17831 -1.16595
1228 3 22.7004 18.1015 5.55463 -3.12703 3.7952 -0.490014
2129 3 24.8094 17.9252 7.16446 1.71082 -0.0826478 -3.79773
1232 2 26.4612 18.0194 5.01915 2.02345 -1.03254 1.72988
1231 3 24.5425 19.8524 5.37201 4.96471 2.58205 2.89366
1288 3 22.731 21.7115 5.29881 -2.96384 -0.884295 -2.04379
2126 2 22.8795 19.8291 7.35483 0.971908 -2.94294 2.71536