ITEM: TIMESTEP
169200
ITEM: NUMBER OF ATOMS
13500
ITEM: BOX BOUNDS pp pp pp
-1.7884152188710090e-01 5.3698841521863557e+01
-1.7884152188710090e-01 5.3698841521863557e+01
-1.7884152188710090e-01 5.3698841521863557e+01
ITEM: ATOMS id type x y z vx vy vz
7 1 3.01381 2.07876 1.88564 2.17861 3.62112 6.36819
64 1 1.16167 3.68661 1.76798 2.34397 -1.07587 -7.79243
902 2 1.11756 2.29032 3.8642 1.56299 -2.77249 -3.18825
965 2 2.79779 4.08557 3.6799 -2.57734 -0.609368 -1.08644
65 2 2.90697 3.76009 0.208622 9.41432 -2.46618 1.72074
905 3 2.80276 0.128969 3.8822 1.51348 -3.74718 6.88394
5 2 2.93733 0.317668 0.0719704 -4.24184 4.81935 1.47194
4 3 1.18923 0.102728 2.00938 -1.38741 1.58437 -3.59906
2 2 1.16766 2.0802 0.0425153 -4.17825 -3.25707 -2.3652
906 2 4.28078 1.84915 3.64608 -5.10617 6.58771 3.13494
6 1 4.78316 2.13384 0.0584544 -4.81168 3.79984 -0.703685
68 1 4.65136 3.89231 1.90427 -0.794643 -1.64655 2.21234
8 2 4.38365 0.16826 1.91631 -1.09411 -2.6414 -6.06431
11 2 6.2125 1.92891 1.90807 -2.86539 1.35241 -5.8375
969 1 6.21104 3.65909 3.68835 4.33161 5.16603 -3.61108
910 2 8.0056 1.83584 3.66278 -2.55932 -5.14012 -3.07553
72 1 7.98081 3.78344 1.83472 0.197227 2.25862 -0.693773
909 1 6.35686 0.240026 3.70795 -4.77658 -5.21592 1.66827
12 3 8.39565 0.0981992 1.84363 0.661801 -1.03774 -0.284027
9 3 6.41513 0.17688 0.1261 0.315059 -1.6905 1.09114
10 3 8.19089 2.04369 0.135951 1.30464 -0.0467617 -2.76169
69 2 6.46043 3.82544 0.0686386 -6.64157 -1.30273 1.6837
15 1 9.80862 2.11371 1.76056 2.59292 8.14393 4.38068
76 1 11.9143 3.76861 1.76786 2.18604 1.6906 -2.3658
914 1 11.9864 2.23217 3.69121 6.99254 -1.12506 -5.39747
973 2 9.91898 3.70175 3.72117 1.17424 3.9907 -0.207704
16 1 11.7889 0.317202 2.01681 -3.63062 -0.754682 1.36442
73 2 10.2334 3.83619 -0.0319593 3.54731 1.91447 0.358266
913 2 9.95471 0.541372 3.64438 2.0873 -0.293497 1.39455
14 2 11.8573 1.859 0.259087 -0.807027 9.99208 0.659988
13 1 10.1246 0.223885 0.172973 -0.859098 5.3138 -6.86676
19 2 13.7661 2.14208 1.96209 11.0006 1.84734 -0.0980714
17 3 13.7686 0.0752216 0.0545472 3.96567 -3.5432 -6.32982
917 2 13.8103 0.313775 3.75626 3.06347 4.14265 -0.530458
977 2 13.7644 3.78342 3.63075 0.777585 1.65637 1.92499
77 1 13.4971 3.55084 -0.0969116 2.19168 -0.783992 -5.32372
80 1 15.4979 3.82105 1.84459 -1.13286 0.969668 -4.29814
918 1 15.4752 2.1655 3.8032 -3.43069 2.26618 -2.09015
981 2 17.1946 3.92561 3.70908 -2.19182 5.61895 -3.3872
921 2 17.0213 0.371745 3.58419 -3.99933 6.0494 -1.74024
23 2 17.4091 1.9659 2.0501 1.73488 -3.05259 -2.88044
20 1 15.3507 0.342872 2.07214 3.98216 -0.543387 0.143938
18 2 15.279 1.91807 0.200745 1.40065 2.53142 3.91232
81 1 17.006 3.47321 0.155711 2.88558 3.66318 -1.53519
21 3 17.1707 0.179067 0.136714 5.38497 3.80848 -8.98474
27 2 20.9288 1.96212 1.85333 3.23965 -3.43302 3.42
84 1 18.9536 3.88087 1.91189 -2.17649 0.592691 -1.11421
922 3 19.0959 2.15845 3.83008 0.53832 -0.0920656 3.85113
985 3 20.8738 3.97613 3.72371 2.74387 8.7009 -0.216056
22 3 19.1022 2.14979 0.185459 6.3433 -7.10658 0.949231
24 1 19.0415 0.172538 1.95329 -5.19753 3.85122 -1.54924
85 3 20.8292 3.78219 0.164626 0.967573 -4.76613 -1.41242
25 1 20.786 0.143042 0.035853 0.364491 -3.13243 2.95906
925 1 20.9069 0.242086 3.69313 3.58809 -3.08023 4.86685
926 1 22.5912 1.95926 3.68098 -0.512145 -0.601198 0.129172
26 3 22.7129 2.19376 0.00968277 0.10823 1.43811 -6.44521
28 2 22.5233 0.443645 1.70049 2.9397 5.36447 7.52512
88 3 22.5335 3.86461 1.96647 -1.35202 5.29575 3.00812
31 3 24.5311 2.06704 1.83668 0.499458 -4.93366 9.45671
989 3 24.4392 3.95213 3.61236 -1.94249 -5.15482 0.343634
92 3 26.3817 4.0395 1.9718 0.250073 -3.85945 1.70384
89 3 24.4999 4.01714 0.215827 5.12974 3.52505 3.13777
930 1 26.103 2.02083 3.77177 2.91233 2.12622 0.348583
32 2 26.3578 0.133033 2.02433 -2.64385 6.95122 -4.06827
29 3 24.5872 0.533559 -0.0481422 2.90966 5.05007 4.82113
929 3 24.2515 0.308142 3.66274 -0.619024 -1.64909 -4.01679
30 3 26.2203 2.26472 0.0610959 0.791137 -1.90282 -4.05897
67 1 2.8885 5.78068 1.93747 -0.593847 4.48563 -1.68524
124 1 1.27474 7.54709 1.80827 3.9379 5.45531 -1.67217
962 3 0.88745 5.71898 3.83571 5.1384 1.41437 5.2623
1025 2 2.92413 7.42484 3.6646 1.19126 -7.08664 -7.3478
62 2 1.13666 5.61382 0.265599 0.896429 -2.51144 3.66598
125 1 2.96957 7.47034 -0.162115 -6.41659 4.56861 3.23304
966 1 4.46016 5.51765 3.63489 -7.65541 -0.210616 -3.12227
128 2 4.64279 7.42776 1.96389 1.63645 0.252548 3.08748
66 2 4.69878 5.5747 0.129554 2.69338 2.51929 -3.88827
71 2 6.37193 5.59866 2.08679 2.0161 7.4519 1.63646
1029 3 6.48227 7.37184 3.63172 -4.98678 5.35543 0.964006
970 1 8.01083 5.48491 3.77036 -3.98257 3.53479 4.18107
132 1 7.95569 7.40505 1.87722 -0.226645 1.24354 3.68119
129 1 6.14404 7.44796 0.179365 -3.44657 -1.0814 -0.959824
70 3 8.15652 5.49503 0.220958 -1.94876 4.03445 -3.21615
75 1 9.97195 5.58015 1.83862 -3.77634 4.19028 -1.57584
136 2 11.7273 7.32666 2.17628 -5.49056 -4.29224 -4.65717
974 2 11.7382 5.47953 3.63971 -2.01786 -0.430295 4.15805
1033 1 9.69553 7.16569 3.66538 7.0059 0.53841 2.44908
74 3 11.9551 5.53259 -0.00305784 -4.32537 5.99706 -0.931449
133 3 10.3896 7.36676 0.18957 2.72897 -4.98185 6.08173
1037 3 13.4941 7.46845 3.61131 4.09591 -1.65507 -1.15715
79 1 13.6236 5.57622 1.80436 -3.71786 5.78365 -3.17798
137 1 13.5006 7.46405 0.254177 -1.19396 -0.999411 -3.89509
140 3 15.4251 7.41441 1.8709 3.79674 1.82608 1.53446
978 1 15.2265 5.76029 3.7558 0.811745 7.08953 -7.82698
83 2 17.092 5.67173 1.99827 0.242581 -1.02729 0.51821
1041 3 17.2418 7.43888 3.71214 -1.10469 3.17533 1.28696
78 2 15.3242 5.64283 0.114825 2.66375 -2.42467 1.27056
141 2 17.0418 7.48174 0.133643 -3.93163 2.8465 -3.70679
87 3 20.7218 5.68851 1.77999 9.56332 1.76935 0.235614
144 3 18.9183 7.55247 2.01775 1.61161 2.40352 0.651489
982 3 18.8142 5.51551 3.59237 -1.11584 2.90683 -4.60767
1045 3 20.7193 7.73199 3.69853 3.14011 -3.02455 -0.900234
145 1 20.7431 7.22915 -0.0932418 3.11852 0.246185 2.62286
82 2 18.908 5.55656 0.123894 -5.82575 2.73406 -6.86425
148 3 22.5911 7.44946 1.91641 5.9386 1.84907 -1.6284
86 3 22.5625 5.52477 0.0804125 3.53383 -2.34365 -3.04206
986 3 22.4648 5.78326 3.77195 -0.269955 -5.92926 3.46861
91 3 24.3248 5.67474 1.88399 4.04539 -3.00167 -4.16881
1049 2 24.3219 7.4239 3.73696 -2.64143 -4.68455 2.08406
152 3 25.9996 7.61704 2.01558 4.14641 6.0319 -3.77238
990 3 26.2938 5.62066 3.77114 -2.27113 7.77885 1.37701
149 3 24.3815 7.45574 0.105442 1.53724 -3.53612 -2.63878
90 3 26.3734 5.54069 0.162533 3.90602 2.0438 1.291
1022 3 1.08915 9.2847 3.64732 0.701042 -4.37554 -1.66821
127 2 3.05037 9.43886 1.7209 0.467791 0.254321 -2.30393
184 3 1.00212 11.0675 1.81213 2.42004 0.765669 1.32234
187 2 2.98698 12.6807 1.73459 1.57629 0.980033 2.4049
1082 1 1.08879 12.6561 3.86944 2.89679 -0.930236 -0.587319
185 1 2.77016 11.1793 -0.036387 -4.83981 6.73079 -1.49169
1085 2 2.99234 10.9989 3.76832 -3.26586 -8.03091 6.0397
182 2 0.801928 12.9517 0.116518 3.15599 5.03724 5.72561
122 2 1.209 9.15018 0.0967667 -1.17339 0.726017 4.09281
188 1 4.78642 11.3822 1.79742 -3.96607 -4.91644 -0.436633
1026 1 4.65662 9.10335 3.64108 4.67038 2.04732 0.990541
1086 1 4.63714 12.757 3.80489 2.50538 0.271255 3.53119
1030 2 8.20406 9.20092 3.69748 -1.82909 -4.68163 3.80601
131 1 6.42487 9.21488 1.76584 -0.209936 1.14983 -1.41144
191 2 6.58535 12.8722 1.88941 1.91325 -2.27094 -3.85531
1089 2 6.40649 10.8933 3.8139 1.01069 -7.34658 -2.56757
1090 1 8.36002 12.7396 3.79826 1.31685 -3.74525 3.72161
192 1 8.26525 10.8319 1.94529 -4.14754 -0.932924 -0.458598
130 2 8.25287 9.03605 0.229383 2.23672 3.11452 -1.6852
189 3 6.56961 10.9388 -0.00623728 -2.93618 1.48929 0.648077
190 2 8.50119 12.6214 0.0678684 -1.26936 4.4969 -1.94431
134 1 12.0209 9.46519 0.0542771 3.32765 1.03313 -0.603189
135 2 10.1682 9.26089 2.15675 -1.45289 4.94003 2.59645
1034 1 11.7288 9.24278 3.86091 -5.55997 -3.07095 1.73291
195 3 10.0051 12.707 1.89905 -0.722456 0.597215 -3.33838
196 3 11.9687 11.0163 1.81806 4.04625 0.922206 5.09665
1093 3 10.2065 11.1384 3.72717 6.86395 -3.13492 2.71742
1094 1 11.9092 12.7769 3.92426 2.98626 -1.87385 3.98012
193 1 10.2076 10.8207 0.254797 3.86257 -2.53269 -5.65585
194 3 12.0412 12.8575 -0.04755 -5.08172 -3.17566 -0.722474
199 1 13.7903 12.8878 1.94069 3.8458 1.68839 -2.60139
139 2 13.4486 9.18431 1.99354 1.6854 -2.84299 0.789333
197 3 13.8971 11.13 -0.0425766 4.25727 0.727583 1.18965
1097 2 13.6068 10.9822 3.71921 1.73206 -4.06456 -6.85765
138 2 15.3528 9.35262 0.468018 6.15609 -0.0440086 -3.27765
1038 3 15.3629 9.04763 3.61755 -2.76703 -4.89443 2.99279
143 1 17.1152 9.18348 1.96066 3.71893 2.67901 -0.413924
200 1 15.4255 11.0382 2.12454 -3.71011 -2.11124 2.77448
1098 2 15.5979 12.7782 3.87345 0.519946 -7.16085 2.71978
203 1 17.4986 12.7291 2.04529 -0.740919 -3.39241 1.09347
1101 2 17.1658 10.7831 3.79368 1.39092 3.06244 5.33455
201 2 17.2214 10.9918 0.142071 -4.95494 -1.93938 -0.410664
198 1 15.6643 12.7178 0.0889286 2.96687 -2.93261 5.87558
1042 2 18.8761 9.16308 3.89704 4.09612 6.34889 -0.275171
142 1 18.9379 9.17763 0.0690224 4.75048 2.00404 1.82191
147 2 20.8396 9.08315 1.65745 3.72227 1.98444 -4.23986
204 2 18.9583 11.0123 1.99325 5.37822 1.04828 3.42597
207 2 20.671 12.5189 1.75648 0.765424 2.31856 -3.35008
1102 1 18.8929 12.6151 3.741 6.47875 4.03247 -4.39384
1105 1 20.81 10.7924 3.57455 -0.091207 3.80678 7.03738
202 1 18.8909 12.8944 0.146156 -2.90371 -3.12963 -1.06938
205 1 20.8527 11.1124 0.0875934 -2.5329 0.1941 -3.05821
206 2 22.8146 12.9353 0.151524 8.48771 -0.571762 -7.0211
1046 3 22.5966 9.1794 3.75651 -1.79938 4.60276 -2.78472
1106 2 22.3953 12.7129 3.60526 0.572797 -1.74829 -2.85268
208 1 22.5266 11.1817 1.93272 -0.316182 -5.49683 -0.374069
146 2 22.4787 9.25728 -0.010456 3.5673 0.299698 -2.27196
151 3 24.3998 9.28745 1.93695 1.83523 -0.244945 0.452144
1050 3 26.2653 9.10662 3.97614 -3.66257 -1.87818 2.57848
211 1 24.4259 12.7676 2.03631 5.12614 0.697067 4.35452
1109 1 24.1757 11.027 3.62423 -1.75962 -1.41727 2.96984
212 2 26.1715 10.9247 1.82362 3.21999 4.14209 -4.05436
1110 2 26.1704 12.6791 3.92099 0.818214 4.07098 0.928033
150 1 26.0946 9.3273 0.38489 -3.95573 -2.76275 -7.64374
209 2 24.2991 11.1169 0.193665 0.892062 2.13535 4.678
210 2 26.0977 12.8678 0.201299 -7.20313 0.684766 -4.28083
244 1 0.896783 14.4725 2.15065 2.03207 5.71483 -5.35389
247 2 2.78784 16.4154 1.93697 4.03803 -0.951193 -1.46136
1142 1 0.926404 16.4007 3.64144 1.33903 2.82362 2.09007
1145 2 2.80105 14.4421 3.82409 5.30517 -4.24995 3.75604
245 3 2.91929 14.4815 0.208861 -0.671922 -1.98675 -0.259833
242 3 0.922782 16.114 0.272458 -8.36697 -0.577648 1.78714
246 1 4.76456 16.1662 0.381781 -3.88729 -0.145993 3.32538
1146 3 4.58095 16.2836 3.66016 -0.125006 -7.74601 -3.45398
248 1 4.6726 14.2429 2.04951 1.42753 -2.83396 1.59526
251 2 6.57071 16.0667 1.82551 5.26962 -0.199692 -0.892689
1149 2 6.5287 14.4378 3.77204 2.2275 1.26527 -1.45006
1150 3 8.16575 16.2485 3.81232 1.11773 0.962783 -0.30232
252 1 8.36753 14.5636 1.93255 4.67427 2.75711 -0.0444662
249 1 6.52654 14.3135 0.090129 2.66605 -0.189027 4.35845
250 1 8.34792 16.4476 0.285967 -2.15079 -2.54829 5.95396
255 3 9.92002 16.4731 2.12552 1.84647 7.68347 -4.66384
256 3 11.8396 14.5909 2.12115 -2.203 0.331077 -1.17382
1154 3 11.8341 16.4456 3.83625 0.548712 -2.58043 -3.62269
253 2 9.97967 14.6709 0.391213 -6.10412 -3.0637 -0.759446
254 3 11.7187 16.4233 0.358055 -0.400199 -3.61331 1.30442
1153 3 10.0696 14.59 3.73767 1.26488 -2.72102 -1.55157
257 3 13.6728 14.7492 0.242303 -4.8669 -3.74291 -2.90447
259 3 13.5323 16.4012 2.0836 6.31368 -5.16802 -7.10543
1157 3 13.6605 14.5721 3.58505 -3.71627 -7.98083 0.725213
260 2 15.5425 14.5038 2.21178 -0.169119 3.83392 -6.7872
263 1 17.2013 16.4054 2.0859 -4.19078 0.361152 -2.08992
1161 1 17.3238 14.8057 3.86655 2.62357 -4.13619 -2.77798
1158 1 15.3717 16.4145 3.81331 0.105738 -1.01269 2.22621
261 1 16.9494 14.6366 0.239004 -4.6884 -5.07285 1.56087
258 2 15.5212 16.4758 0.366508 -3.77327 -3.4599 7.66631
264 2 18.6194 14.7233 1.85671 -0.224422 -1.90214 0.104793
267 2 20.7969 16.4857 2.18095 -9.83315 5.88605 3.98075
1162 1 19.0476 16.5552 3.73307 -0.454596 -5.72678 1.93994
1165 3 20.7294 14.5186 3.63501 1.83768 2.97579 -1.57071
262 2 19.0962 16.3716 0.38953 3.16292 -0.450671 4.51147
265 1 20.7833 14.3425 0.306636 -0.584885 -1.97892 -1.69499
266 3 22.5083 16.2924 0.124759 -0.414299 -1.29428 6.88245
268 1 22.6009 14.5326 2.02554 2.76562 -1.35622 -0.909493
1170 1 26.4033 16.4608 3.6791 3.4763 3.32777 0.990854
271 2 24.5261 16.276 2.20479 4.11926 0.682841 2.91889
1166 1 22.6008 16.4574 3.61815 -5.51805 1.35166 0.721272
1169 2 24.5586 14.6431 3.80439 1.33246 11.2828 -0.133423
272 1 26.3805 14.5141 1.9068 -2.93459 -0.717697 5.07827
269 1 24.6596 14.6711 0.256617 1.3066 -0.150372 2.55306
270 3 26.3068 16.3756 0.450454 3.06824 3.78337 -1.00607
305 1 2.86789 18.1394 0.280013 5.40012 3.01549 0.851115
304 1 0.917132 18.0691 1.93167 -3.26862 -1.94927 0.898092
307 2 2.88991 19.6979 1.84083 0.654757 3.58333 0.415702
364 2 0.891493 21.6048 2.13611 -2.91459 -1.41423 4.15874
1202 1 0.850235 19.8535 3.57539 -2.33411 2.95728 0.839077
1265 2 2.73271 21.6909 3.72555 -6.78689 -4.91094 7.03296
365 1 2.93394 21.4586 0.225421 3.11402 -3.54574 4.67412
1205 3 2.67617 17.9908 3.80495 -1.04405 5.48669 -3.57014
302 2 0.971162 20.0288 0.289323 -3.0686 2.63778 -1.49435
368 1 4.77567 21.8139 2.26774 -0.933022 2.63158 0.944058
308 3 4.8174 18.1692 2.05428 1.7711 2.04425 2.21598
1209 1 6.40343 18.0572 3.83889 -3.81918 4.60088 2.81622
312 2 8.2982 18.088 2.12361 -1.13113 -1.00889 0.689574
306 1 4.8424 19.9207 0.353614 -0.341286 -4.26562 8.3252
309 2 6.62301 17.9964 0.294338 -2.91668 0.194968 -4.54639
1206 2 4.62181 19.9927 4.07677 0.889344 0.325957 4.15047
311 3 6.43169 19.7168 2.10284 2.47578 4.10856 -1.99338
1269 2 6.44099 21.9903 3.72512 5.1172 3.86631 0.86067
372 3 8.20548 21.7362 2.10721 -4.73187 -3.98931 0.539001
1210 1 8.00332 20.0707 3.89153 2.29898 0.0503864 -4.42371
369 2 6.46414 21.8625 0.266045 1.70541 0.618381 8.38361
310 3 8.14135 19.977 0.272544 1.51654 -2.37154 -10.0812
1213 3 9.86671 18.4033 3.87832 -4.06707 2.68458 -1.22737
313 3 9.90197 18.3029 0.269569 3.04842 2.22992 -2.0352
316 3 11.7614 18.2377 2.05322 -2.85905 3.23301 -1.30092
315 3 9.92227 20.0985 1.79368 0.0832689 0.0605808 -0.852676
376 2 11.7511 21.7486 1.75687 4.42786 -0.600902 3.70227
1214 3 11.6509 19.982 3.74464 -4.53646 6.34342 1.99431
1273 2 10.1211 21.7345 3.79749 -4.80913 -1.53894 -8.41264
314 3 11.6664 19.9393 0.087629 0.749196 -1.93135 1.40905
373 3 9.71765 21.8601 0.143086 4.52609 -5.78482 5.60895
1217 2 13.4775 18.2725 3.63074 6.16321 -3.60459 -1.93877
317 3 13.5359 18.1204 0.018916 3.58208 0.0687971 -1.82996
319 2 13.4231 20.0084 1.99429 2.79635 0.314712 -1.0072
320 1 15.4306 18.2811 2.00543 5.0487 -1.11607 -0.145178
1277 2 13.551 21.8222 3.80953 2.9695 -3.71355 -0.47082
1221 2 17.1422 18.4221 3.75071 1.72719 1.31271 -1.75179
380 2 15.364 21.9253 1.77499 2.73598 -3.08144 -5.24167
1218 1 15.2251 20.01 3.75954 0.859752 3.53152 2.59372
1281 1 17.1448 21.9701 3.84707 1.46033 -6.21455 2.60813
323 2 17.1132 20.199 2.07161 -0.962934 -0.161824 -3.37603
318 3 15.2457 19.8462 0.117959 3.24156 4.75235 -1.11387
321 3 17.3271 18.1934 0.547673 -3.60822 1.12768 1.63481
377 1 13.4596 21.6022 0.108391 0.149468 -0.205813 -4.56283
381 1 17.1163 21.9177 0.0931656 4.5982 2.56795 5.73015
1225 2 20.589 18.2391 3.74356 -4.49013 -1.78407 4.82972
324 1 18.9546 18.2224 2.23964 -4.02059 -3.74528 -1.50865
327 3 20.8008 19.8927 2.05255 -0.64292 2.57614 0.572534
384 2 18.9759 21.8829 1.87844 -5.52781 -0.739039 1.03009
1222 3 19.0191 20.2983 3.8086 0.561048 2.24819 6.34964
1285 3 20.8267 21.8231 3.54422 2.61296 5.46227 -2.71554
385 1 20.6214 21.8328 -0.108303 -1.50646 1.69572 -3.3578
325 2 20.7856 18.2806 0.24408 2.23858 5.63673 -5.58301
322 1 18.9096 19.9459 0.214965 -0.34757 -0.413519 -0.180633
1229 1 24.5337 17.9684 3.68987 2.90201 -2.00965 -3.89692
326 3 22.5478 20.3067 0.143597 2.99035 0.165083 -4.18287
328 1 22.5223 18.0407 2.04736 -1.76617 0.770465 -1.30692
1226 3 22.4826 20.0364 3.87494 4.13388 2.03596 -6.72834
332 1 26.2498 18.3627 1.99976 -1.59914 -7.13152 -1.24229
388 3 22.6249 21.8698 2.03583 1.11119 -1.75453 -5.43263
331 3 24.3666 20.0803 2.03221 2.36896 3.77318 -3.88693
1289 3 24.4157 21.6504 3.67285 -1.6894 7.76902 -2.16714
392 3 26.2495 21.6263 1.98335 -3.90791 0.132356 -3.00141
1230 1 26.2545 19.8907 3.6477 -5.33839 -1.99239 -3.0263
330 3 26.1954 19.9677 0.323721 -0.018929 1.43213 -3.22444
389 2 24.509 21.7064 0.0861796 -1.46282 -7.04744 5.60759
329 3 24.4976 18.1533 0.478063 -0.141703 -1.48273 -4.93508
367 1 2.69741 23.3914 2.06404 0.352342 -3.18692 1.9034
424 3 1.00983 25.2492 1.79137 1.37734 -1.21377 -1.98025
1262 1 0.872845 23.5878 3.75772 3.9764 -4.031 1.33006
1325 2 2.7072 25.3006 3.87127 -6.84066 2.36231 -2.05313
425 1 2.70737 25.3851 0.277069 -1.36844 -0.504445 -2.35777
362 2 1.0116 23.4382 -0.0994008 -2.37278 -2.84543 0.00104208
366 2 4.09531 23.5009 0.209498 4.56274 -4.5047 0.47499
1266 1 4.42335 23.5572 3.92399 0.243593 -2.49964 -5.59488
428 2 4.4393 25.3738 2.03386 -3.85646 0.699457 -2.97887
371 1 6.293 23.6324 1.80211 -0.247751 -3.12572 0.950142
1329 3 6.19353 25.3249 3.71031 -1.80759 -3.46321 -1.84013
429 3 6.23489 25.5191 0.305377 4.16436 5.3658 -3.24228
432 2 8.04211 25.3839 1.80408 -0.276835 -2.08017 3.60071
1270 3 8.28093 23.4662 3.61178 3.96752 0.0174796 2.48151
370 2 8.06735 23.4244 0.253352 0.0500192 -0.871224 -5.44892
375 3 9.9984 23.4416 2.06571 1.76352 1.67146 0.633038
436 2 11.6344 25.4613 1.93638 -0.21417 -0.292953 5.56529
1333 2 10.0018 25.3137 3.63957 -1.08699 -1.04589 0.570627
433 1 10.057 25.3202 0.157716 -0.216032 2.7463 -2.89885
374 1 11.7653 23.5063 0.198646 0.116947 1.28827 -0.882795
1274 1 11.7627 23.6487 3.72578 -2.92303 -3.44525 0.673714
1337 2 13.6087 25.3499 3.94514 -4.8903 -2.63724 7.07131
379 1 13.6067 23.3843 1.91708 -6.98683 -0.781847 1.33757
440 2 15.2576 25.3918 1.95558 -2.70837 -8.53022 0.0242832
383 3 17.2008 23.6193 1.95574 5.06958 3.31837 2.84468
1341 1 17.117 25.3367 3.70211 -6.40863 -3.96275 -5.19294
437 1 13.5261 25.0454 0.181703 1.68836 3.21605 1.05451
1278 2 15.4173 23.3991 3.7568 -0.224342 6.88195 -3.02875
441 3 17.1541 25.3577 0.0889441 4.68659 3.4149 -0.323198
378 2 15.4905 23.6763 0.135488 4.25644 -1.67243 0.500482
387 3 20.893 23.6051 1.68921 -1.4681 -3.127 2.80268
444 2 18.9863 25.5345 1.8936 5.28254 -1.56991 3.85516
1282 3 18.9021 23.7946 3.7806 4.11497 3.33611 2.30473
1345 3 20.9713 25.3322 3.99769 -1.6217 -5.30128 -0.511113
445 3 20.6893 25.4701 0.154742 -4.19322 -4.20196 -0.919554
382 3 18.8192 23.6423 0.153354 -2.59297 2.69277 6.31822
448 3 22.5711 25.2887 2.05379 -1.47465 -0.652833 -6.56831
1286 2 22.6834 23.4089 3.91539 0.177602 0.50854 2.96613
391 3 24.401 23.5192 2.0127 -4.17598 -2.23095 3.35182
1349 3 24.4497 25.3224 3.78673 -0.407816 2.34537 0.87041
1290 3 26.3099 23.6511 3.80086 1.33036 1.7289 2.30227
452 3 26.327 25.3726 1.71855 5.03882 -2.97469 -3.21587
449 3 24.3815 25.257 0.306341 -0.823608 -2.34927 2.24653
386 3 22.5995 23.5206 0.153447 -0.457951 1.7993 -0.548027
390 3 26.1919 23.4933 0.198742 1.2127 -0.77924 -2.63698
907 1 2.8544 2.32537 5.50743 8.38532 0.565963 -2.92546
964 1 0.973439 3.82861 5.60143 -0.191634 -3.69059 -1.41807
1802 3 1.03859 2.00154 7.22434 -6.15499 0.0603601 3.67037
1865 3 2.78373 3.93025 7.33647 -0.978628 1.14881 -0.158238
1805 3 2.58149 0.341948 7.56677 5.91064 -2.06612 3.43191
904 2 1.07365 -0.00343622 5.66702 -0.309713 0.939749 -2.62374
908 2 4.42925 -0.135257 5.59314 8.2971 0.568768 3.34154
968 2 4.63042 3.98119 5.61576 0.0132452 2.03528 7.64849
1806 2 4.60682 1.98206 7.26636 1.60503 -3.67735 3.01531
911 1 6.18711 1.93966 5.45144 6.63144 -2.14329 3.27624
1869 1 6.29937 4.01081 7.09209 -2.24245 3.67712 -7.03589
972 1 8.14592 3.89085 5.50754 4.39997 -4.28171 1.42692
1810 1 7.92846 1.96126 7.04936 -2.99013 -3.64561 1.23619
912 2 8.35353 0.286482 5.57163 0.462927 -0.815756 -5.50165
1809 1 6.46605 0.174923 7.16241 1.30899 -0.970513 0.538113
915 1 9.9867 2.074 5.25449 -1.25359 -5.42045 4.05595
976 1 11.9693 3.8058 5.34569 1.52769 2.3243 -0.940192
1814 2 11.7981 1.95774 7.09339 2.35684 -2.6244 -1.25322
1873 3 10.1197 3.65066 7.2312 -3.03512 -3.78579 -4.67461
916 1 11.7766 0.290471 5.48439 5.42665 -0.410603 4.23091
1813 1 10.065 0.348557 7.34245 4.54452 -2.45125 -0.335749
919 2 13.6045 2.06425 5.51545 6.09756 -7.23352 0.753311
1817 1 13.509 -0.0466607 7.48547 0.323043 -3.56934 -1.9844
1877 1 13.606 3.68497 7.37062 4.66475 -1.60148 4.63007
980 1 15.3068 3.7863 5.60565 1.21362 3.41421 -0.159904
1818 1 15.3418 1.84825 7.45169 0.459973 -0.440937 1.39665
1881 2 17.1392 3.79073 7.33108 -1.35174 -1.82374 -0.227729
923 1 17.0454 2.04058 5.59442 -4.8233 3.89214 0.815289
1821 2 17.1934 0.401821 7.396 2.03864 0.660875 -3.37341
920 1 15.4499 0.146613 5.52735 -1.20932 -5.58102 -0.941216
927 2 20.7608 1.99018 5.6668 -1.71779 1.66682 0.141059
984 1 18.9872 3.86701 5.72399 5.74192 -4.41281 1.76436
1822 1 18.9254 1.94104 7.3269 1.9903 -6.05614 2.32696
1885 1 20.8636 3.6777 7.2967 -2.88517 -3.8665 -3.27766
924 2 18.9066 0.38264 5.47965 0.751064 -4.27489 -0.126512
1825 2 20.4334 0.0843984 7.17951 -0.257927 -0.213279 -1.91754
1826 1 22.4894 1.9961 7.24308 -4.76754 -4.17404 -2.08587
928 1 22.5743 0.159245 5.70524 4.54331 1.20901 2.39671
988 1 22.4166 3.72791 5.51954 -4.30681 1.95877 2.71384
931 3 24.2563 2.00676 5.43193 -2.72812 -0.471362 -1.06619
1889 2 24.509 3.87744 7.116 3.20772 0.651614 0.675458
1830 1 26.1929 1.8926 7.3875 3.36704 0.639874 -4.19085
992 1 26.3622 3.84505 5.56644 0.481842 2.45411 -1.18322
1829 2 24.3191 0.197754 7.27753 0.247659 -3.69428 2.40822
932 2 26.3496 0.122817 5.7643 6.68427 0.154352 -8.56054
967 1 2.7433 5.68402 5.70839 -6.76816 1.64851 2.86058
1024 2 1.29502 7.49818 5.46695 -0.122096 -5.23918 5.52725
1862 2 0.988278 5.60936 7.20185 4.36925 -3.01279 -1.9185
1925 3 2.77169 7.43816 7.46311 4.03965 -1.05761 2.42822
1028 2 4.47878 7.3818 5.57437 1.85886 -4.32525 3.02832
1866 3 4.68512 5.54727 7.33905 6.29682 0.449357 0.0342492
971 2 6.21268 5.68451 5.46009 0.636971 0.883076 -4.12021
1929 1 6.4334 7.39989 7.22747 1.8722 5.26796 2.24573
1032 1 8.23067 7.26311 5.46951 -2.51684 2.24119 -1.17645
1870 2 8.06946 5.38404 7.31882 5.33434 -5.64526 -6.04193
975 1 9.98284 5.61339 5.42766 0.389124 -1.57589 -4.06139
1036 2 11.5139 7.26114 5.29816 1.26308 3.46106 -2.72427
1874 2 11.8864 5.58588 7.18624 4.4181 2.20495 4.19308
1933 3 9.83052 7.14392 7.33217 -3.05908 2.9621 -7.6515
1937 1 13.4953 7.50045 7.35064 1.59564 2.99943 -4.76762
979 3 13.4265 5.77881 5.5135 -0.382205 3.67223 1.58185
1040 2 15.2895 7.51958 5.71847 2.7214 0.444062 -3.6071
1878 3 15.0868 5.68725 7.30479 -4.79472 -3.60325 1.30337
983 3 17.0039 5.70281 5.62406 -5.20513 3.16485 -1.05791
1941 3 17.0457 7.50416 7.44456 3.87255 4.59744 2.98514
987 3 20.8045 5.75698 5.58042 3.90396 -2.14911 -0.43114
1044 3 18.9467 7.43644 5.7015 -2.50745 0.945947 2.36972
1882 1 18.8699 5.78769 7.55752 -4.27738 2.88187 3.59058
1945 1 20.7505 7.47759 7.32579 -0.694144 0.670127 -5.46069
1886 2 22.5885 5.6 7.27803 -1.40277 -4.26812 1.08466
1048 3 22.4391 7.4443 5.40839 1.20255 1.36214 2.21612
1052 3 26.0007 7.30037 5.58863 4.20323 -1.20433 1.444
991 1 24.2524 5.50496 5.45974 -1.4076 -3.48931 0.949788
1949 2 24.2405 7.66921 7.18463 -6.60422 -1.66108 -1.67412
1890 2 26.0683 5.69765 7.30848 5.55283 4.03419 -4.38002
1922 1 1.08864 9.27171 7.33503 4.79964 4.94772 -1.83967
1027 1 2.92559 9.33739 5.55192 1.0101 -2.17185 5.16286
1084 3 1.00074 10.9086 5.47366 1.16916 -3.2237 6.68595
1087 1 2.97198 12.7214 5.56669 -2.16104 4.61594 2.19118
1982 2 1.06615 12.8075 7.32569 -7.58877 -2.32924 -1.2191
1985 2 2.76797 10.9076 7.3549 1.22575 -0.00915609 0.449452
1926 1 4.54085 9.26815 7.34296 2.27328 -1.72075 -1.60376
1088 2 4.50915 10.9246 5.689 -1.42255 -3.98761 5.56416
1930 2 8.15492 9.27701 7.10769 0.253404 -4.29843 -1.00063
1031 1 6.44393 9.07734 5.42516 -0.0701623 0.850463 0.250368
1091 1 6.30318 12.716 5.61989 -0.271437 0.639712 0.673418
1986 1 4.58949 12.7627 7.47231 2.74095 2.67852 -6.75431
1989 1 6.4932 10.9581 7.13925 -0.567085 -1.81217 -3.32915
1092 1 8.22136 11.0102 5.47596 -0.645042 -1.80319 -4.00567
1990 1 8.12849 12.7395 7.10586 0.396685 2.80045 3.81635
1934 3 11.6446 9.14854 7.23675 -5.58083 -1.5845 1.66863
1035 1 9.93704 9.07673 5.57816 1.67464 -2.82804 4.47822
1095 3 9.92753 12.8313 5.50688 -4.74849 -3.24533 -3.53799
1096 2 11.7322 10.942 5.52844 -0.703473 -3.70434 -3.66182
1993 3 9.98671 10.9982 7.24385 1.01933 -4.29244 -0.50097
1994 1 11.7416 12.8201 7.47415 7.85724 0.28238 -4.56999
1099 1 13.549 12.9198 5.58749 -2.31414 -0.747897 -2.75136
1039 1 13.5662 9.08827 5.31837 0.668966 -1.18803 2.90855
1043 1 16.9281 9.26567 5.5614 -0.382557 -1.94732 -3.45558
1938 1 15.3186 9.41934 7.39316 -4.94815 -1.06448 -7.467
1997 2 13.4854 11.1765 7.13952 -0.50507 3.9562 1.23085
1100 1 15.4595 11.1846 5.39113 5.15266 0.0762372 -2.8764
1103 1 17.3485 12.8079 5.54532 1.95276 -6.64692 -1.33461
2001 1 17.0616 11.1473 7.32206 -1.14602 0.101396 5.29844
1998 2 15.3961 13.0139 6.95533 -6.03982 1.8629 -3.66354
1942 2 18.9257 9.39269 7.14943 7.69504 -6.77362 -1.23326
1047 3 20.8866 9.30068 5.52919 -0.296384 -5.23288 1.04758
1104 1 19.0238 10.8758 5.3242 -4.80282 5.21166 -4.42792
1107 3 20.808 12.658 5.457 0.421456 -1.85762 0.681689
2002 2 18.8408 12.8402 7.26377 -1.71503 -4.31437 7.37385
2005 3 20.8086 10.9201 7.54119 -2.19237 0.314237 -0.293278
1950 1 26.3477 9.26015 7.24947 -3.25193 1.92028 0.641119
1946 2 22.372 9.0934 7.34271 0.323898 -0.405162 -2.99046
2006 3 22.4381 12.694 7.17242 1.28762 -2.1738 -3.51
1051 3 24.3339 9.30379 5.57175 6.79587 2.57462 -1.94254
1108 2 22.6073 11.0253 5.38567 2.06652 2.3147 3.67512
2010 2 26.3499 12.8601 7.01624 4.30663 -2.84181 -1.91388
1111 1 24.4271 12.6985 5.41323 5.86613 -1.76741 1.72758
2009 3 24.4704 11.032 7.20717 -0.846269 6.18074 1.35359
1112 2 26.113 11.0094 5.61019 0.360722 -0.992588 7.62562
1144 2 0.88545 14.5012 5.36298 0.743844 -3.78843 -1.29867
1147 1 2.4912 16.3401 5.50681 2.82794 -0.129651 0.621638
2042 3 0.758938 16.0896 7.39842 2.57184 3.1121 -2.0451
2045 2 2.67534 14.3656 7.24255 3.58604 -1.08359 2.38958
2046 1 4.31961 16.4925 7.4671 0.838366 -5.34919 -1.26214
1148 2 4.50369 14.6014 5.52654 -0.309402 -1.71784 -0.791189
1151 3 6.24935 16.2886 5.52498 -4.51135 -1.48964 0.584356
2049 3 6.33216 14.5482 7.39549 -3.14511 -0.816582 -2.96771
1152 3 8.12418 14.6553 5.48615 0.49265 -0.0526154 -4.91162
2050 1 7.97729 16.5262 7.37862 -4.08623 -2.05296 -1.80968
2052 1 8.25196 14.5518 8.7782 -2.39426 1.08179 1.16708
1155 1 9.93963 16.1626 5.72604 -4.70147 -1.13917 -1.32296
1156 2 11.8596 14.4735 5.58677 5.2927 -1.84526 -1.36805
2053 2 10.009 14.5961 7.41081 -1.70287 3.57691 6.20422
2054 1 12.0146 16.3216 7.23059 -0.41848 -3.17839 -1.54393
2057 2 13.6032 14.5277 7.55595 -4.95769 -2.30172 -3.41845
1159 2 13.5843 16.5843 5.45346 -3.99217 0.774131 7.72271
1160 1 15.3505 14.6374 5.45565 -0.755313 -3.55957 -1.49616
2058 3 15.2506 16.3816 7.23315 -1.28163 3.64891 -3.91541
2061 3 17.0986 14.671 7.20788 0.352231 7.6501 -1.6853
1163 2 17.1697 16.5105 5.47903 0.646775 -0.280102 2.43649
1164 2 18.9319 14.3309 5.51867 3.54753 -2.11848 -0.735561
1167 3 20.8495 15.9801 5.40579 4.50897 0.586787 4.82237
2062 3 18.9727 16.1002 7.08164 3.68921 -0.562892 3.24605
2065 3 20.7368 14.3263 7.10816 2.19405 -0.953448 -2.20981
2066 3 22.3947 16.3195 7.21246 8.0097 0.764908 6.51869
1168 1 22.6486 14.3405 5.29087 4.73851 2.42484 -1.8258
1171 2 24.2127 16.4703 5.37438 9.47322 -6.0131 -4.26843
2069 2 24.3035 14.5726 7.10352 -2.13175 0.505802 0.983279
2070 1 26.105 16.4846 7.18206 -0.417472 4.18828 0.782663
1172 1 26.2775 14.9164 5.49516 2.86195 -1.24495 -2.50614
1204 2 0.663866 17.9944 5.32632 1.98942 5.30003 0.656691
2105 2 2.68931 18.2331 7.3576 3.62131 -0.185756 -5.37257
1207 1 2.65585 19.6152 5.53549 -7.41497 -0.82466 -1.82924
1264 2 0.949496 21.4737 5.44138 -0.941931 1.81819 -3.41154
2102 1 1.00043 19.9345 7.36803 1.53105 -0.565844 -0.978234
2165 2 2.60162 21.8374 7.3204 -3.83567 3.19417 1.82439
1268 1 4.23956 21.7554 5.71929 3.81826 6.95708 -5.76903
1212 2 8.02784 18.1958 5.55923 -2.46797 -6.27136 3.226
2106 2 4.33944 19.8096 7.43232 -1.65853 -3.29282 0.589042
1208 2 4.4402 17.9317 5.67008 4.27453 -2.28918 -3.56118
2109 1 6.17725 17.9043 7.27376 -5.39234 2.62487 -2.22863
1211 1 6.33821 20.0281 5.78935 -4.12882 0.699141 5.40952
2169 2 6.43728 21.9475 7.12132 0.65687 7.7917 3.14852
1272 1 8.04173 21.874 5.4892 -1.54194 -2.11037 -3.70702
2110 2 8.02871 20.0004 7.27788 3.25133 -0.11342 2.24179
1216 3 11.6464 18.1213 5.51681 4.17409 0.613481 -3.28495
2113 1 10.0001 18.204 7.49862 3.34707 3.56801 0.278033
1215 3 9.86287 20.0479 5.7404 4.13941 2.37375 -2.89532
1276 1 11.6383 21.7707 5.56712 -2.54994 -2.62076 -3.40909
2114 2 11.5281 19.9212 7.42154 -5.72284 -1.56066 -7.98579
2173 3 9.84656 21.8075 7.40341 -2.06785 -1.84501 3.91646
2117 3 13.5184 18.4123 7.26219 -6.31482 -0.0677955 -5.8012
1219 1 13.4392 20.0515 5.45432 -6.35141 -2.56885 -0.826652
2121 1 17.1449 18.1004 7.15663 2.86464 2.57721 -1.62186
2177 1 13.5804 21.543 7.23801 -6.20902 2.87623 4.94272
1220 2 15.1316 18.1774 5.47852 0.031862 -4.40415 -0.413185
1280 1 15.3504 21.7834 5.48121 1.67113 0.474212 -4.55263
2118 2 15.5144 20.0503 7.51423 -3.77569 -0.672586 -0.189718
1223 1 17.0747 20.0211 5.48822 0.997376 -0.460869 2.03547
2181 2 17.1577 21.8031 7.41151 1.12443 1.85712 0.114794
2125 3 20.738 18.1234 7.21685 -2.7625 0.21522 -2.74612
1224 3 19.089 18.1369 5.54136 1.9942 -1.11921 2.48855
1227 3 20.6747 20.1235 5.68013 -2.41067 -4.17599 -1.31592
1284 3 18.974 21.9482 5.50988 -5.04585 -4.2962 -0.567722
2122 3 19.0972 20.1761 7.37225 -3.14429 -11.9665 0.925596
2185 2 20.6954 21.7541 7.36941 -1.34578 1.55846 4.9303
2126 3 22.3441 20.0358 7.37263 -1.64372 -6.94125 -4.51867
1228 3 22.5106 18.2732 5.54168 -0.0717626 3.92357 1.20097
1288 3 22.648 21.8878 5.64622 -3.50574 1.15501 -1.98787
1232 2 26.1053 18.2369 5.40857 -2.49115 1.21733 6.19328
2129 3 24.3905 18.3626 7.29651 -0.65053 1.19268 0.743954
1231 3 24.4328 19.8472 5.59984 5.77049 2.19329 2.02093