ITEM: TIMESTEP
135600
ITEM: NUMBER OF ATOMS
13500
ITEM: BOX BOUNDS pp pp pp
-1.7900845665571197e-01 5.3699008456637387e+01
-1.7900845665571197e-01 5.3699008456637387e+01
-1.7900845665571197e-01 5.3699008456637387e+01
ITEM: ATOMS id type x y z vx vy vz
7 1 3.01124 2.09572 1.77171 -3.08683 6.41728 -2.08716
64 3 1.38096 3.86543 1.85248 -5.24251 -1.00772 2.49942
902 2 1.44696 2.20191 3.756 -6.61729 3.45954 -1.39561
965 2 2.99865 3.6808 3.70494 6.48192 -2.3282 -3.27204
65 2 2.90981 3.86627 -0.0831959 3.44665 -5.54583 -0.348333
2 3 1.34802 1.87437 0.0561125 1.30065 1.88183 -0.227776
905 2 3.07016 0.223071 3.75864 0.176949 1.037 -1.70774
5 2 2.98673 0.143064 0.114191 0.470447 3.48723 1.91153
4 1 1.29009 0.405482 2.15877 1.46997 -1.09334 0.0541399
11 2 6.61936 2.12874 1.93481 2.15884 0.9069 2.03934
68 3 4.85522 3.79524 1.87911 -11.4443 -0.77586 2.18703
906 3 4.92236 2.04373 3.81237 0.823078 -5.81783 -2.51525
969 1 6.64474 3.86536 3.97174 0.984687 6.52501 0.37854
910 1 8.35465 1.855 3.76029 -5.22422 2.79336 -4.78112
72 3 8.34053 3.93996 1.9332 -0.75597 1.45207 3.94335
69 1 6.6604 3.65129 0.00323695 -0.614131 -0.151956 -0.202762
6 1 4.67174 1.98263 -0.0291022 0.622729 1.09488 3.74746
909 2 6.45349 0.134363 4.04628 -4.30828 -0.325312 2.07872
10 3 8.22306 1.89741 0.0398227 -4.93198 -1.25413 -2.037
8 3 4.93109 0.388956 1.86881 1.37091 5.41549 4.39363
9 2 6.60234 0.177802 0.177153 2.47666 2.51491 -3.97982
12 1 8.26475 0.0461928 1.96996 0.0530636 1.77607 2.12651
15 2 10.0652 1.79165 1.81728 -1.80076 5.53639 -1.85294
76 1 12.0165 3.56476 1.89528 6.98488 2.84319 -1.00039
914 3 11.9892 1.94994 3.79215 1.04759 2.27502 -0.882904
973 2 10.1314 3.48417 3.68457 -2.18813 -2.48669 2.10663
14 2 12.1563 1.72391 0.160272 0.522297 4.52713 1.24482
73 1 10.3008 3.60975 0.106315 0.547937 -0.476504 1.5804
16 1 11.9749 0.0090469 1.75133 -1.80316 3.56775 5.84289
913 1 10.2244 0.250548 3.84394 0.9927 4.18156 -3.88713
13 1 10.2123 0.0361333 0.00501167 2.64917 -5.1331 -9.5286
917 2 13.9222 -0.0585578 3.75268 0.454576 6.21429 5.93392
19 2 13.7719 1.93602 1.94072 1.12152 -1.89225 -5.01101
80 1 15.7732 3.5617 1.887 1.46881 -2.6482 1.70523
918 1 15.6877 1.86505 3.81081 -8.67824 0.976078 -2.14896
977 2 14.0149 3.84452 3.73812 0.351235 1.05176 1.13417
981 2 17.4004 3.60178 3.64189 3.99993 -0.341008 -0.222934
23 2 17.4582 1.79112 2.10472 -0.185751 1.79993 -1.07916
18 2 15.8467 1.91167 0.205891 0.111252 8.65699 -5.13332
77 1 13.8872 3.72628 0.364732 5.8205 -2.64306 1.78814
81 1 17.5617 3.55734 0.225473 2.04117 3.31654 0.175684
921 2 17.1878 -0.0069914 3.8613 1.92222 6.23152 -0.594437
21 1 17.5139 0.0343545 0.000540667 1.39742 0.693511 0.94205
20 1 15.5939 0.0934018 2.12161 -4.07337 1.70524 -2.42863
17 1 13.9387 -0.00756506 0.231913 -1.54864 1.1578 2.33053
27 2 20.9721 1.80928 2.00536 0.59417 2.10048 6.24495
84 1 19.271 3.5998 2.07158 3.30133 -5.73585 -2.35103
922 3 19.2146 1.89415 3.82932 0.310254 -1.03203 -5.86556
985 3 21.0971 3.80934 3.72592 0.830137 2.6442 -0.516487
925 1 21.0881 0.133194 3.65289 2.17339 -2.82837 2.70542
85 1 20.8822 3.51808 0.0714664 -3.68888 1.85768 -2.03348
22 2 19.3212 1.61122 0.103346 3.52263 6.00959 -0.114876
24 1 19.1853 0.139635 2.02698 6.50779 8.96467 -3.99239
25 1 21.0356 0.0278915 0.0234347 2.00342 -5.45935 -2.70813
31 1 24.7055 2.03175 1.88473 1.39491 4.78484 2.69099
88 3 22.7068 3.78917 1.8145 -1.00318 -4.74857 -0.968009
926 1 22.8642 1.94534 3.54041 1.01183 -2.6179 -0.983332
989 3 24.5946 3.64013 3.84496 -3.59414 4.5014 -1.99316
92 3 26.2773 3.79267 2.11365 -1.2365 2.14815 1.16279
89 3 24.6144 3.7082 0.295018 0.71066 -5.53804 3.01649
930 3 26.4292 1.66316 3.47141 -4.77138 0.129845 -0.317909
30 3 26.2713 2.09425 0.0799271 4.2896 2.32427 -7.17404
26 3 22.814 2.04532 0.166381 -2.0091 -2.02517 2.511
929 3 24.6046 0.145781 3.77487 0.594066 -2.18358 1.52867
29 3 24.3688 0.278389 0.0719586 -0.119576 0.0692143 4.00621
28 3 22.6246 0.0924777 1.93366 -4.77081 -1.29372 0.449608
32 2 26.2873 0.123486 1.68668 6.50178 -3.13262 1.25809
67 1 2.99403 5.57943 1.95308 -0.581581 -0.440525 0.662718
124 3 1.18335 7.38424 2.06502 0.967338 4.399 3.44773
962 2 0.883335 5.34397 3.85094 -2.00248 1.69315 4.00326
1025 2 3.0933 6.99935 3.60024 -3.58735 2.0311 -2.13447
62 2 1.42854 5.84459 0.116862 -5.44306 -3.09606 -1.80191
125 1 3.07256 7.30004 0.00376946 -4.34055 -0.867808 -0.104859
71 2 6.614 5.4496 1.77402 1.30029 2.08557 -0.332483
128 1 4.62751 7.23511 1.91775 1.27696 -2.89883 -1.40739
966 1 4.81495 5.48444 3.70958 0.51193 -2.79738 -4.29125
1029 1 6.54176 7.4154 3.58686 -6.06234 -2.98066 6.58034
970 1 8.11294 5.60858 3.80168 -2.56 -5.56774 4.66927
70 2 8.3173 5.4043 -0.0482711 2.60481 -1.55535 -2.14336
66 2 4.5801 5.50722 -0.0360689 -0.891006 0.943376 2.31994
132 2 8.21229 7.25936 1.62046 0.356547 -3.94133 0.08416
75 3 10.0794 5.54613 1.76753 2.74717 -6.67266 1.18857
136 2 11.7359 7.11144 1.86706 5.84062 2.62883 -3.14043
974 1 11.9194 5.26348 3.82524 6.77714 -3.80901 0.0299761
1033 1 10.074 7.00735 3.59124 1.02204 4.72636 -5.79291
74 1 11.9439 5.4845 0.312446 0.840206 1.82231 0.0753476
133 1 10.2114 7.14462 -0.079911 4.05682 -3.14067 1.7808
79 2 13.7587 5.46279 2.04125 -2.60278 3.57266 4.86485
140 1 15.68 7.31463 1.74934 2.38588 -0.88774 -1.32854
978 1 15.669 5.3781 3.58953 3.34595 -2.11411 1.87474
1037 1 13.9644 7.15377 3.79389 -5.31444 -1.21202 0.146771
141 1 17.4883 6.92885 0.311681 -2.88174 -3.16011 -2.90564
83 2 17.477 5.41214 1.91071 -0.465439 0.339819 -0.904055
1041 2 17.4493 7.17052 3.50324 1.6474 5.14616 -0.604166
78 2 15.622 5.34395 -0.0865348 -3.37817 1.22257 6.07249
137 3 13.7725 7.04697 0.0524191 -6.36292 2.52399 -4.26008
87 3 21.1261 5.45229 1.72962 2.88253 -6.75505 2.04485
144 1 19.4246 7.26254 1.88826 -3.91996 -1.33764 -0.722798
982 2 19.3348 5.44931 3.82922 2.12176 0.02898 8.69544
1045 3 21.0485 7.24801 3.61537 4.96147 4.81927 -0.202832
145 1 21.0203 7.50654 -0.100839 6.19833 -0.0688004 2.00412
82 2 19.3576 5.31816 0.0358247 3.01421 0.89268 -2.73591
91 3 24.488 5.56609 1.82655 -5.32506 1.4007 -0.0723343
148 1 22.7285 7.26406 1.69236 3.62677 -0.143042 0.52979
986 3 22.7465 5.46883 3.73507 0.771039 -0.11931 3.434
1049 3 24.361 7.21941 3.66361 -5.47694 -5.82738 -0.406299
152 3 26.273 7.47404 1.71013 4.17342 -3.18477 2.51719
90 3 26.3002 5.66193 0.1879 1.86604 -4.21534 -3.36926
149 3 24.486 7.30047 -0.0915582 5.93392 -1.46364 3.3161
86 2 22.7298 5.61437 0.134526 4.12209 2.22985 -0.129565
990 3 26.2646 5.74574 3.55927 2.34106 2.72382 -2.6072
122 2 1.31789 9.20141 0.232325 -1.59232 1.16977 -6.16151
1022 3 1.49935 8.97233 3.62824 2.89659 1.78642 1.316
127 1 3.00625 9.11953 1.79055 -4.16083 4.69924 -4.6665
184 1 1.12943 10.7005 1.80563 3.18407 6.31693 -1.83229
187 2 2.816 12.3918 2.04849 0.340433 -1.36623 -0.709021
1082 3 1.08982 12.8142 3.73048 4.27717 5.44708 -3.92019
1085 2 2.8413 10.9174 3.83848 -4.89875 3.66257 -2.70479
182 2 1.16814 12.5728 -0.0983858 -1.1281 -4.79958 0.44674
185 1 3.06596 10.7528 -0.106869 2.8316 0.644476 5.0191
1030 1 8.25582 9.166 3.6687 2.0046 -9.76321 3.20961
130 1 8.33768 8.80149 -0.164931 0.485765 -0.599945 0.116937
131 2 6.42288 8.9782 1.61019 2.31748 1.77561 1.94787
1026 3 4.8293 9.04099 3.48031 1.21793 -5.48094 1.57948
188 1 4.66553 10.7992 1.74062 -4.98383 0.0784716 6.76889
191 3 6.65626 12.6375 1.71478 -3.55144 0.209597 4.97808
1086 1 4.57779 12.5803 3.76953 -5.24615 -1.83268 5.60276
1089 2 6.53373 10.7595 3.48281 -2.67411 0.577582 0.86738
1090 3 8.37104 12.505 3.59331 -4.15908 -3.22757 -4.64487
192 1 8.23515 10.547 1.65335 0.987616 -0.239417 -2.83431
190 2 8.62041 12.4823 0.158672 -2.73481 4.36637 1.78767
186 2 4.77254 12.5847 0.0908732 6.70695 8.51673 -3.63006
189 1 6.51246 10.7254 -0.0394377 5.06516 -3.18272 4.04593
126 2 4.66671 8.80472 -0.136071 6.10014 -2.73703 4.54357
134 1 11.9193 8.99914 0.129853 2.50847 1.04592 1.15853
1034 1 11.9607 8.87563 3.59809 2.232 0.179272 -2.34558
135 1 10.0482 8.81689 2.07746 -1.04364 -7.20197 4.86047
195 1 10.2173 12.6341 2.04013 -2.81829 -3.84835 2.0702
196 3 12.0265 10.6141 1.76005 -2.28009 -4.11683 -1.95524
1093 2 10.0677 10.7666 3.54448 -3.31907 1.53376 -8.74425
1094 2 12.0428 12.5576 3.61421 -3.59173 -2.60458 3.67139
193 2 10.0883 10.6741 0.196357 -0.357734 11.6308 -3.62905
194 1 12.5234 12.5727 -0.153295 -5.70282 4.44234 3.17757
138 3 15.6201 8.94896 0.0380054 -0.121716 1.30322 -1.61365
139 2 13.6774 8.81943 1.83041 2.79177 -3.57761 1.82208
143 2 17.5062 8.88266 1.92604 0.975867 -1.45536 -3.44022
1038 1 15.5547 8.88222 3.77403 3.76511 1.78364 -2.40757
199 3 13.8537 12.3636 2.06393 -1.98102 8.48803 4.29403
200 1 15.794 10.7175 1.97941 1.90714 -3.89393 1.99645
1097 2 13.6262 10.5904 3.5785 -0.650991 -3.71891 -5.63448
1098 1 15.6459 12.3098 3.78976 1.70017 -1.12577 1.02178
203 1 17.4852 12.6565 1.93437 -2.30925 -3.34047 3.25302
201 2 17.266 11.0038 0.0128655 4.35163 2.87299 -4.42747
1101 2 17.4494 10.8823 3.77588 2.15224 -3.30797 -2.12647
198 2 15.5875 12.7941 0.289705 0.275782 3.24716 0.703733
197 2 13.9762 10.7837 0.0533904 1.80368 -0.986259 -2.06942
142 1 19.0302 9.07492 0.201319 2.89912 -5.70501 3.77002
147 2 21.0741 8.90869 1.84728 -5.52858 -8.6527 4.14046
1042 1 19.2566 9.06003 3.82079 0.821471 -6.88534 5.47243
204 2 19.2853 10.8262 1.80481 -4.03378 -3.50848 -7.41924
207 2 21.1192 12.8079 1.67963 0.182522 3.95469 1.85758
1102 1 19.1949 12.6808 3.41193 -7.01788 3.19411 -4.77356
1105 3 20.9617 10.9331 3.74667 8.15266 -3.30502 -4.35479
205 1 20.9281 10.6711 0.0743918 -3.28414 1.10615 -2.72825
202 1 19.2009 12.8919 0.0518947 3.874 -0.457025 1.04156
151 3 24.5836 9.13496 1.90582 3.11004 -0.92695 -3.16261
1046 2 22.8163 9.2221 3.71033 0.110192 -3.74465 -1.38557
146 2 22.8535 9.27348 0.121939 0.268006 0.710324 -6.83601
1050 3 26.4223 9.072 3.62694 3.03314 -6.38686 2.06672
208 1 22.6458 11.0577 1.83347 1.31715 -3.94565 0.24243
211 1 24.7943 12.7309 1.89648 -2.87992 -5.20317 6.82021
1106 2 22.8991 12.6885 3.67399 2.06656 3.46299 2.42349
1109 1 24.6152 10.8749 3.71758 -3.97711 -2.04368 -7.78296
1110 2 26.402 12.5925 3.63436 -1.35862 4.11125 1.95058
206 2 22.8168 12.8008 0.180984 -0.885661 -1.7916 -9.35482
150 1 26.2261 9.11143 -0.014679 -0.431854 -3.6576 -2.01767
212 2 26.5796 10.7091 1.94293 2.65842 -3.93997 2.00217
209 1 24.4014 11.0232 0.170876 4.5487 0.195866 -6.92387
210 2 26.5298 12.6037 -0.0470666 -4.67356 5.30495 7.65091
244 1 1.0902 14.5673 1.91517 0.916567 -1.00526 -2.15816
247 2 3.03307 16.3356 1.92454 -0.655041 1.34223 4.62651
1142 1 1.27806 16.4223 3.76209 0.0573823 -0.671165 5.60123
1145 2 2.98406 14.6485 3.53693 3.83185 2.6643 -3.38285
245 1 3.02156 14.3744 0.19361 1.90938 1.5643 0.679283
242 1 1.4061 16.2107 0.114189 -0.0533261 3.35707 -3.02157
248 1 4.74746 14.2915 2.06107 -0.190367 2.39422 2.05213
251 2 6.21737 16.1594 2.0174 6.36889 2.5609 7.43598
1146 1 4.62757 16.2225 3.89306 1.17829 -0.0498972 -1.67918
1149 2 6.55351 14.331 3.55882 4.30903 -4.32052 -4.17163
1150 3 8.43773 16.1991 3.71921 -3.93659 -0.25037 2.48273
252 3 8.35998 14.2896 2.0215 -0.244935 -2.83739 -0.635834
250 3 8.48695 16.2244 0.287881 1.57318 -1.61336 -7.27315
249 1 6.64565 14.6308 0.306229 4.51897 8.71859 -1.38912
246 1 4.7288 16.3026 0.0882852 -1.01982 1.63991 -1.6222
255 3 10.2162 16.3439 1.82939 -2.22553 -3.59694 -1.28998
256 3 12.3566 14.3877 1.8436 0.553981 2.82924 3.46437
1153 3 10.1991 14.5893 3.78901 2.95966 0.405941 0.383353
1154 3 11.9765 16.236 3.78135 -1.21701 -2.80081 -3.06578
253 3 10.4129 14.2834 0.236763 3.86319 8.01738 0.667901
254 3 12.1122 16.3738 0.319795 -6.17811 0.213132 -0.819786
259 3 13.9837 16.3262 1.8649 -4.41475 -4.46663 4.62578
260 2 15.4194 14.5217 2.25132 -1.54261 3.81761 2.68753
1157 3 13.8674 14.4916 3.74377 2.5174 0.469492 -7.13414
1158 3 15.4205 16.2327 3.86126 -3.06347 2.12811 1.31847
263 3 17.475 16.0084 2.03011 2.33169 -2.52577 0.238414
261 3 17.307 14.3154 0.331552 3.86031 -2.53156 3.09619
1161 3 17.2263 14.3 3.83425 -2.17723 2.6741 6.67366
258 2 15.6153 16.3583 0.322498 1.55202 2.66841 4.80621
257 1 14.1523 14.5014 0.186055 3.15845 3.76748 -0.970559
264 2 19.2577 14.4808 1.87108 3.90439 -0.54992 -2.64176
267 3 20.9251 16.4598 2.0219 0.420487 0.593011 -0.618654
1162 3 19.1321 16.3233 3.92303 -0.0155645 -3.2181 -0.294414
1165 3 20.9761 14.348 3.63318 -6.7176 -10.8792 -6.90153
265 1 20.982 14.5026 0.209193 -0.316274 -2.91265 6.83658
262 2 19.1878 16.2065 0.247417 -1.16534 4.1136 0.699519
1170 1 26.323 16.1311 3.60259 0.650368 6.22886 -1.53682
268 1 22.8432 14.5028 1.77316 -6.5664 -3.14454 1.65911
271 2 24.5124 16.2209 1.83618 -0.320189 -0.247147 0.714263
1166 3 23.0888 16.5802 3.70482 -0.526439 -6.53073 5.93808
1169 2 24.7071 14.3693 3.41464 -0.0824598 -0.391406 -2.53735
269 3 24.6761 14.7437 0.0951982 -1.14526 -2.38278 -5.94132
272 1 26.471 14.3338 1.80611 -0.713772 -9.34909 1.47348
266 1 22.5507 16.4244 0.05675 -0.901895 -3.88947 -5.91224
304 3 1.11067 18.0705 1.8453 -0.186614 5.70158 3.77858
1205 1 3.0254 18.1387 3.69143 -3.74713 -3.45871 3.94467
305 1 2.89278 17.9305 0.0117168 4.78644 -1.13919 -4.66921
307 2 2.93429 19.537 1.72106 1.37963 -0.0388403 5.03119
364 3 1.21376 21.5735 1.94996 -0.932747 -2.08703 2.99912
1202 1 1.32386 19.7867 3.58376 5.22955 3.53174 -0.336143
1265 2 3.11074 21.4978 3.47203 4.23231 6.9634 0.538112
365 1 2.87997 21.6416 0.295029 4.16012 0.00482678 -3.08718
302 2 1.12322 19.5749 -0.157302 -0.0353019 1.60877 4.05834
1209 1 6.64412 17.8421 3.61865 3.59585 4.20681 0.184304
308 2 4.75455 17.9958 1.99807 3.89967 3.37819 -4.07207
312 2 8.16784 18.0231 1.90534 2.37217 -1.75429 2.5
309 2 6.39508 17.9283 0.100377 0.717628 -3.92476 2.17932
311 1 6.47122 19.7179 1.88449 -0.442036 1.90289 -1.62982
368 2 5.01863 21.4824 1.95382 -1.09726 -5.15545 2.07395
1206 1 4.70901 19.8606 3.64367 4.05122 2.34337 2.11361
1269 2 6.66212 21.5924 3.5719 2.07242 0.0591163 1.43857
372 3 8.47697 21.3321 1.89029 4.81457 2.83859 -1.77787
369 1 6.50278 21.6494 0.0602384 0.312074 2.1373 -1.53968
1210 2 8.32301 19.7621 3.62146 -4.32324 3.02911 -2.26383
306 1 4.69767 19.5362 0.194164 9.93184 1.19428 -0.872017
310 3 8.19183 19.8781 0.100127 3.06034 0.302788 -0.0164268
316 3 11.9872 18.0986 1.90197 -5.50707 -2.85339 -0.569155
1213 3 10.0189 17.8643 3.80155 4.39399 -1.09257 -5.17013
313 3 10.1196 18.0407 0.328551 -5.07146 -2.44899 -5.28522
315 3 10.3192 19.8181 2.03508 1.62207 2.90043 3.70596
376 2 11.9031 21.6268 2.07951 -3.73645 -0.329511 -1.95943
1214 1 11.9786 19.9689 3.66838 -2.92612 -5.47042 0.566456
1273 2 9.90961 21.6896 3.83743 -1.01599 0.0949036 -0.711782
373 3 10.2398 21.5271 0.180556 3.62298 2.18452 5.4547
314 3 12.0199 19.8106 -0.00350914 1.0653 -6.08583 -2.38557
377 1 13.733 21.99 -0.0161838 4.62088 -4.22321 -7.27514
1217 3 13.6709 18.0436 3.62498 1.68744 -1.61788 2.42397
320 3 15.4943 18.2657 1.80188 2.9712 -1.48203 -6.66167
321 1 17.1578 17.9205 0.234968 3.01145 -2.73188 -4.02097
1221 2 17.3064 18.131 3.62623 -0.584059 0.548846 1.121
317 2 13.9081 18.2115 0.0347213 -2.43261 -4.34067 -5.90323
319 1 13.7217 20.1836 1.87976 -3.12243 -0.626977 5.47049
380 3 15.5177 21.9758 1.94884 1.9648 3.20831 4.7792
1218 2 15.5225 19.9943 3.64817 3.33032 -4.85471 -8.92815
1277 2 14 21.7384 3.80261 9.80705 6.24654 1.01592
1281 1 17.2478 21.7269 3.7961 -0.730678 -0.759085 -1.61461
323 2 17.3436 19.8574 1.99069 2.73895 0.97082 -0.922147
318 2 15.577 20.1678 0.13912 -2.59847 -2.64815 4.03369
381 1 17.5226 21.7422 0.392333 -0.967195 -4.65693 -4.35266
325 3 20.9015 18.1344 0.0952977 -2.3875 -2.52675 4.1741
1225 3 21.1511 18.2159 3.83288 3.8259 -0.515268 1.40199
324 1 19.0511 17.9628 1.98294 1.45839 1.95962 -0.805867
327 1 20.9045 19.8939 1.84262 2.70841 -6.66558 4.43198
384 2 19.2525 21.9644 2.11144 -0.229393 5.64461 7.49579
1222 1 19.1608 19.9976 3.55415 2.96244 -1.45726 8.10243
1285 3 21.0272 21.8765 3.72111 -3.41551 -1.49695 -2.96138
385 1 21.0902 21.8501 0.338325 -1.78653 0.153103 2.2095
322 2 19.081 19.7301 0.34495 2.83504 -0.30499 -2.71204
328 3 22.541 18.3479 1.86846 1.74426 -2.45951 3.94449
1229 1 24.6671 18.2327 3.51615 -0.63483 1.59652 -2.88079
329 1 24.6142 18.1061 -0.0538571 4.03102 -3.38108 0.444246
332 3 26.2286 17.9412 1.56589 -7.2446 2.04176 -3.02861
331 1 24.6019 19.745 1.84208 -2.12752 1.67994 -4.03251
388 2 22.6987 21.5685 2.03312 3.19214 -1.06436 -3.43134
1226 2 22.9883 19.7195 3.82509 3.93052 -2.184 -6.05563
1289 1 24.4762 21.5694 3.80186 4.92326 0.748327 0.373816
392 3 26.0852 21.7641 1.50316 6.12413 0.141748 -5.07956
1230 2 26.4542 20.0465 3.26802 0.45423 -5.6946 0.0677326
326 3 22.6852 19.9636 -0.0428607 -3.39892 -0.880258 3.12979
389 2 24.4939 21.5134 -0.0116538 1.95724 2.93456 -0.482202
330 2 26.4204 19.8426 -0.0195945 3.2911 0.57915 -1.78602
367 3 2.97166 23.3613 1.81685 -0.435537 3.46832 0.556263
424 3 1.18435 25.1348 1.76594 0.510828 0.158562 -1.81452
1262 1 1.1173 23.3547 3.73488 3.83636 1.03942 -2.06189
1325 2 2.65073 25.0551 3.81908 2.52458 2.67294 3.35427
425 1 2.82628 25.1375 -0.0527557 -5.28401 -2.02311 0.643716
362 2 1.09715 23.4373 -0.116697 2.10067 -8.33581 -4.61345
371 1 6.51754 23.5066 1.66107 4.38027 -2.20956 4.97732
428 2 4.79416 25.1985 1.99764 0.160806 4.16464 -1.26238
1266 1 4.95083 23.3849 3.47023 -2.01404 2.29331 4.93631
1329 2 6.53534 25.3367 3.53189 -4.76717 -1.71722 2.82034
432 2 8.37976 25.3129 1.60447 2.00262 3.33749 3.337
370 2 8.22797 23.1956 0.276835 1.02154 7.22437 0.185959
1270 1 8.45304 23.4527 3.78123 -1.16149 -1.09732 2.58438
429 1 6.73075 25.2997 -0.15398 1.99962 -1.58388 -0.822697
366 2 4.77612 23.2278 -0.0945002 -0.349423 4.03706 0.572732
375 3 9.99203 23.3026 1.86845 1.94382 -1.44968 1.1482
436 2 12.0388 25.1541 2.12812 -0.287381 5.18732 -4.63219
1274 1 11.874 23.5557 3.80707 -3.35943 -5.28312 1.00158
1333 1 10.0239 25.3329 4.06068 -5.08509 -0.308849 1.4982
374 3 11.9894 23.5649 0.199774 -0.191742 6.32713 6.62129
433 3 10.1957 25.1222 0.134582 -0.537687 0.493516 -2.69337
379 3 13.6888 23.6058 1.91459 -7.77899 -1.15437 5.63675
440 1 15.3183 25.502 1.87635 -4.33817 -5.82975 5.08827
1278 1 15.6156 23.6933 3.83508 0.805499 -4.28968 2.54837
1337 2 13.5609 25.0776 3.91348 -6.85038 4.19931 -6.64467
383 2 17.3663 23.8535 2.16324 3.89133 0.423581 -3.61748
378 2 15.5209 23.6933 0.0795003 3.43689 1.64242 1.28154
1341 2 17.402 25.59 3.85213 0.873554 2.55063 -3.38546
441 3 17.1466 25.2882 0.26149 2.90577 -5.43296 3.67835
437 1 13.69 25.2468 0.14599 2.30464 0.63371 -0.419716
387 1 21.0731 23.7401 2.06983 -2.07977 0.926896 1.63332
444 2 19.3669 25.3014 2.01186 2.33542 0.548292 0.0147098
1282 1 19.0906 23.4459 3.95083 2.44117 0.39718 7.75132
1345 2 20.677 25.1885 4.1485 -1.05169 -3.13702 -2.74901
382 1 19.2173 23.65 0.197987 -2.0222 -5.1835 2.33228
445 3 21.0068 25.2879 -0.0607881 -0.352683 1.82607 -6.26981
391 3 24.4558 23.5064 1.92105 4.89745 -5.93968 -0.157558
448 1 22.6139 25.3229 2.30011 4.28462 6.8756 -1.59472
1286 2 22.704 23.5217 3.63669 11.8849 -2.30478 6.44508
1349 3 24.6485 25.2787 3.76981 1.23526 -5.62191 5.46102
1290 3 26.3184 23.3705 3.80269 0.680893 -3.57861 -2.86188
452 3 26.3097 25.2263 2.04281 1.93827 3.59784 0.564954
449 3 24.5904 25.263 0.168376 -6.88908 1.79001 2.08935
386 3 22.7742 23.5797 0.0650939 -3.37541 -1.7904 -0.86958
390 3 26.2617 23.5718 0.16364 1.35358 -0.28759 -4.45574
907 1 2.9131 1.77991 5.70367 2.28822 -0.742483 -3.4945
964 1 1.30138 3.63683 5.68477 -6.18747 -2.65144 -3.96838
1802 2 1.40517 1.97232 7.61858 1.06894 2.6134 -0.00783424
1865 3 2.95757 3.69158 7.31389 5.2889 3.76179 -1.40176
904 1 1.24479 0.266829 5.67802 5.7385 1.11317 2.75089
1805 1 3.13732 0.290716 7.54622 -0.998374 -1.88593 -0.833591
911 1 6.60428 2.06437 5.52703 -4.7281 -4.51744 -0.561278
968 2 4.64886 3.93887 5.52292 5.58706 -4.91544 2.52856
1806 3 4.81317 2.02443 7.38535 -0.663406 -0.9965 -0.425005
1869 1 6.66 3.78204 7.32998 5.9213 5.05136 -6.04436
972 2 8.34408 3.66091 5.4742 -3.50827 -3.30212 0.0906141
1810 2 8.42129 1.99125 7.2058 3.95125 2.37738 4.2443
908 2 4.7275 0.28026 5.54346 0.452664 -0.654585 -6.21914
912 3 8.61483 0.0745487 5.44062 0.822488 3.47782 -2.6432
1809 3 6.82991 0.23284 7.17041 -0.0826623 5.10104 -3.76931
915 3 10.2381 2.10827 5.48808 3.74258 -0.237781 -1.16621
976 1 12.0662 3.71673 5.37292 0.885191 -7.25058 -2.13384
1814 2 12.2431 2.01643 7.41506 2.09613 2.32957 3.17115
1873 3 10.2012 3.66097 7.40556 1.52127 -5.12475 -0.250489
916 3 11.991 0.130415 5.53256 1.3145 8.86124 -0.677905
1813 3 10.1845 0.462859 7.22646 4.29267 -3.03739 2.76634
919 3 13.851 1.98179 5.59803 2.51198 -4.24353 3.08071
980 2 15.79 3.65476 5.70142 -3.49586 -2.05061 -4.03663
1818 2 15.6347 1.80715 7.50179 -5.34325 -0.906541 -5.51489
1877 1 13.799 3.5901 7.24329 0.709973 -2.72982 5.20999
1817 3 13.6146 0.0760757 7.44099 -0.139489 0.618073 -3.8383
1881 2 17.515 3.52907 7.44092 -2.68625 -5.66439 5.9631
923 3 17.3933 1.70166 5.61869 1.33499 -1.24314 -2.45284
920 3 15.4939 0.206162 5.64961 1.36158 -5.67207 1.26587
1821 2 17.2005 0.0955279 7.47754 -3.37792 -6.68872 1.10242
927 2 20.951 1.88778 5.64393 6.21027 -2.33729 -3.30196
984 2 19.0896 3.57758 5.55042 8.14656 -6.30786 -3.84153
1822 1 19.2024 1.68236 7.35376 -0.319636 0.193793 -5.84385
1885 1 20.9116 3.59173 7.30736 2.99439 -2.69773 -8.47747
1825 3 20.9977 0.19778 7.42765 1.04219 5.84112 2.73267
924 1 19.0794 0.00368359 5.56344 7.46473 5.94929 1.60444
931 2 24.4847 1.91867 5.29962 -5.08028 -1.16587 0.802548
988 3 22.7329 3.6267 5.45989 -4.57759 3.4153 3.30743
1826 3 22.7545 1.88541 7.31311 -0.760224 -1.55391 2.35562
1889 2 24.5943 3.67709 7.22052 -2.19098 -7.35119 -3.77106
1830 1 25.9815 1.80261 7.12391 0.0874148 -0.202167 0.346552
992 1 26.6349 3.41179 5.40408 5.85313 0.795528 -5.22196
932 2 26.0176 0.110261 5.45585 -3.75079 1.58833 4.08788
1829 1 24.2082 -0.1154 7.0699 -2.62691 -7.43838 4.23086
928 1 22.7003 0.314492 5.24576 -5.58623 -2.53555 5.58009
967 3 2.9402 5.5088 5.55794 3.88865 -0.453547 -1.31404
1024 3 1.0789 7.35807 5.43087 -1.64565 -4.14995 -1.78206
1862 2 1.08823 5.57448 7.25322 -5.30183 -0.234472 -2.6479
1925 3 2.96164 7.21103 7.26539 -1.4345 6.14439 1.12047
971 2 6.54347 5.97468 5.48794 3.03265 2.55359 -1.14959
1028 1 4.74387 7.17964 5.54856 -4.66724 4.71596 -5.49009
1866 3 4.84994 5.44897 7.31045 -0.857871 1.70779 -0.315738
1929 1 6.56488 7.44051 7.3285 3.02996 -2.43906 1.27628
1032 2 8.40695 7.32716 5.48345 -5.53211 -1.11299 0.71221
1870 3 8.34766 5.41288 7.32935 -5.51497 -1.00362 -1.85656
975 1 10.1302 5.43699 5.53839 4.04259 10.3807 1.36519
1036 2 12.111 6.97591 5.32662 -2.84137 3.23076 -2.33295
1874 2 12.1399 5.62113 7.23105 6.14053 1.15313 10.3743
1933 1 10.108 7.1714 7.05719 3.44741 0.757252 4.35334
979 1 13.8331 5.40397 5.79122 -2.25952 -3.67115 2.69031
1040 2 15.8098 7.14405 5.42867 0.693464 -0.843131 -2.87014
1878 1 15.5773 5.50772 7.21585 1.39354 5.93334 -2.33257
1937 2 13.8357 7.55758 7.3126 -9.67479 0.258955 0.592092
983 1 17.4353 5.28457 5.49002 0.335639 4.54681 -2.36284
1941 2 17.3964 7.25995 7.34199 4.84641 -5.9298 -3.10757
987 2 21.1528 5.5292 5.64504 3.68907 1.56203 -1.29074
1044 3 18.891 7.28382 5.49737 -0.326705 2.02636 -5.09893
1882 1 19.3384 5.42176 7.09172 -4.71417 -0.310524 2.35158
1945 2 20.9311 7.39373 7.3756 -5.84066 -0.472188 -0.226411
1887 2 20.8326 5.52494 8.78346 1.39093 1.14661 -0.200617
1052 3 26.3595 7.41266 5.44283 3.02368 -0.567133 -6.41584
991 3 24.7246 5.4964 5.2674 -2.99844 0.811576 -2.76273
1048 3 22.8646 7.32599 5.53451 -0.431498 -4.14262 1.63205
1886 1 22.9165 5.62371 7.30823 1.13227 2.72954 -1.58026
1949 2 24.5453 7.43331 7.34254 -2.41317 -0.564828 6.37827
1890 2 26.3386 5.31203 7.21129 0.92032 -3.48178 0.551462
1922 3 1.43497 9.21558 7.08969 4.30821 -0.837044 -2.55476
1027 3 3.03644 8.91725 5.3384 -4.11549 1.20094 -2.36874
1084 1 0.994292 11.0373 5.41277 -0.566956 -0.515069 2.17828
1087 1 2.83881 12.694 5.57726 12.5259 3.28769 -2.62581
1982 2 1.02307 12.6451 7.21533 5.28807 2.98386 4.75996
1985 3 3.0394 10.9468 7.16343 -2.11968 -0.00974991 0.370782
1930 1 8.29432 9.11395 7.42393 -8.66731 0.101919 0.984289
1031 3 6.5848 8.91193 5.44408 -6.00333 1.15536 -4.11999
1926 3 4.66539 9.13696 7.38975 -3.47999 -1.31452 3.67979
1088 3 4.74717 10.6729 5.49557 -4.44544 0.442564 -0.301011
1091 3 6.3894 12.6615 5.38478 3.41872 -0.446742 5.63626
1986 3 4.80083 12.6911 7.3178 -0.484593 -0.617335 1.61029
1989 3 6.44183 11.0069 7.16313 4.92344 4.01155 0.125933
1092 3 8.37757 10.7396 5.40245 0.133611 2.62997 6.96381
1990 2 8.2415 12.4149 7.16615 4.17968 -7.52781 0.0323707
1035 2 10.0452 9.09383 5.27648 0.469703 1.69579 -1.52376
1934 2 11.8599 8.83691 7.15349 0.632043 -5.77235 -2.83975
1095 3 10.0984 12.5643 5.28321 4.87717 0.380942 -1.681
1096 1 11.9424 10.6313 5.42561 0.0741411 -0.756687 -2.44846
1993 1 10.2122 10.7594 7.18307 1.4296 4.87243 5.33871
1994 2 11.9678 12.5133 7.28989 4.03537 3.55336 9.05043
1938 1 15.6469 9.27536 7.19257 -1.2743 3.77757 -1.17452
1039 1 13.9248 8.92668 5.34438 1.80348 2.27818 1.81651
1043 1 17.2698 9.1073 5.30845 2.02937 0.0613002 2.95085
1997 2 13.6321 10.7491 7.24132 1.6119 3.41532 1.1444
1099 1 13.8561 12.3487 5.56722 -1.62885 1.2609 -0.0652228
1100 2 15.6959 10.6679 5.36879 7.06085 -0.345195 -0.85654
1998 1 15.6756 12.6158 7.38853 3.5061 3.75316 5.2337
1103 2 17.4223 12.6903 5.43213 1.65668 6.51046 3.14608
2001 3 17.351 10.997 7.14855 -3.75527 1.79884 -5.51711
1942 2 19.3544 9.19887 6.9676 2.91254 0.33798 5.38835
1047 1 21.1756 8.91576 5.28971 1.06609 2.15218 5.44882
1104 3 19.2219 10.9464 5.44174 3.20307 -4.98171 1.85009
1107 3 21.0521 12.7399 5.38156 -2.50658 -1.94079 4.51041
2002 3 19.1056 12.5785 7.13569 -0.314256 0.893156 -1.33379
2005 3 21.0389 10.9392 7.18493 6.34496 -3.14816 -3.60296
1946 3 22.8095 9.23663 7.34049 -8.54071 -0.471176 1.58143
1950 3 26.3857 9.20632 7.16625 -2.41797 -5.96172 -0.204338
1051 3 24.6473 8.9802 5.41257 -4.19809 0.0457985 -2.39566
1108 3 22.7804 10.9265 5.36867 8.47889 -4.31004 -1.06233
1111 1 24.7843 12.6129 5.40086 0.0330265 -3.21374 -2.89676
2006 3 22.8673 12.8346 7.17628 5.77552 5.17077 -0.0450548
2009 1 24.9429 10.9701 7.30087 -3.76562 -3.06443 1.81868
1112 2 26.4831 10.911 5.47268 4.99638 6.75757 -1.07707
2010 1 26.543 12.7541 7.31058 1.70782 0.29268 -1.54725
1144 2 1.16249 14.682 5.45594 -0.808617 3.87579 0.798472
1147 1 2.90684 16.359 5.59174 -7.37461 5.21669 1.50365
2042 3 1.13704 16.3517 7.32396 3.02772 7.16562 1.32813
2045 2 2.92342 14.4197 7.26988 -0.366767 -2.90588 -5.23562
1148 2 4.92785 14.4937 5.46902 3.54338 1.37851 1.34671
1151 1 6.55633 16.1785 5.52809 4.38049 3.39277 -8.50772
2046 3 4.65815 16.0865 7.32537 2.14147 3.15758 -1.28313
2049 1 6.53756 14.479 7.33866 5.28726 -3.49964 1.78876
1152 3 8.29589 14.2367 5.37778 -2.4387 2.30276 -6.03745
2050 1 8.29011 16.1664 6.97199 5.5671 -7.25168 -3.78849
1155 2 10.0348 15.8716 5.64808 -1.42961 -1.40244 -0.106702
1156 3 12.2411 14.3514 5.56355 -3.51458 -0.656026 4.6788
2053 3 10.1666 14.1735 7.12647 2.48859 0.924364 0.284145
2054 3 11.8465 15.9871 7.37821 -5.95326 0.906657 -3.84251
1159 1 13.5631 16.404 5.79547 -2.38779 5.34191 1.99767
1160 3 15.3061 14.3961 5.51506 -6.84934 2.32537 -1.89774
2057 2 13.7653 14.4232 7.18035 4.78779 6.15583 0.198977
2058 3 15.7239 16.2167 7.29212 7.93892 5.85295 -0.741775
2061 3 17.3029 14.335 7.16147 -2.70594 3.38171 0.46092
1163 3 17.1726 16.3174 5.34102 0.508536 -4.04386 -1.39742
1164 3 19.2527 14.504 5.57863 6.05803 4.85953 -4.43837
1167 3 21.0279 16.2187 5.4002 -2.25071 -2.82734 1.74839
2062 1 19.1999 16.0898 7.41436 -5.52183 3.12469 0.184911
2065 3 20.9571 14.442 7.2403 3.10545 -0.918246 1.30242
1168 1 22.926 14.5122 5.32082 3.33179 0.894282 3.94383
1171 2 24.8546 16.2091 5.49998 -1.97568 2.65107 -7.5401
2066 3 22.7885 16.3449 7.10109 -1.5695 1.96787 -1.00173
2069 2 24.7223 14.6015 7.26021 3.4256 -5.59415 -1.18207
1172 1 26.576 14.6299 5.43346 -0.395379 7.41328 3.50643
2070 1 26.3654 16.3689 7.06673 -7.34157 -2.75365 -3.82054
2105 1 3.01372 17.9268 7.30744 -0.667386 -2.38528 6.46278
1204 2 1.29534 17.9762 5.6759 -8.81406 1.94737 -8.78576
1207 1 3.06841 19.9474 5.38616 4.06745 -3.42207 3.08096
1264 3 1.1864 21.5732 5.32132 -3.09171 2.62825 3.8431
2102 3 1.1782 19.8724 7.34194 -4.26654 -4.37001 -0.338104
2165 1 2.95156 21.6252 7.17069 5.74617 -0.414504 -2.76175
1212 2 8.14102 18.0855 5.35864 -1.00242 9.67876 3.17983
2109 1 6.60535 17.9444 7.40989 -7.05208 0.263245 7.04971
1208 2 4.91237 18.1112 5.6435 -0.178584 -1.25199 0.978586
1211 1 6.51542 19.6963 5.36839 6.74398 -6.70984 -0.299399
1268 2 4.73928 21.6555 5.50051 -0.812617 -8.48998 3.16926
2106 2 4.65997 19.8967 7.29921 3.58035 1.35234 -1.35252
2169 1 6.5186 21.7529 7.11161 2.74886 -0.88221 3.20533
1272 1 8.32452 21.6073 5.42195 -2.0493 0.45775 4.90594
2110 2 8.40403 19.9424 7.31836 -0.266128 -0.768741 -7.85891
2113 3 10.001 17.9998 7.38851 3.39491 -0.72761 -2.38209
1216 2 12.0287 18.2294 5.39294 4.07253 3.75249 0.287172
1215 3 10.2256 19.8428 5.66729 -2.13202 -0.0176925 -2.42296
1276 1 11.9651 21.5079 5.54451 5.47288 7.61533 -11.8209
2114 2 11.9914 19.7419 7.43637 9.19858 -0.349282 -0.772751
2173 1 10.3558 21.4258 7.33789 1.18479 1.53376 -2.87668
2121 3 17.151 18.0737 7.20115 2.78173 9.1004 -0.923876
2117 3 13.7695 18.2062 7.37019 -0.752236 -0.00165704 -1.34012
1220 3 15.4359 18.1539 5.47325 1.24756 4.86476 -2.84808
1219 3 13.6117 19.8107 5.52426 -0.979244 -3.57879 10.6062
1280 2 15.5851 21.7358 5.77118 -1.39227 4.41081 1.27452
2118 2 15.3779 19.9585 7.48472 -2.93207 -2.54855 0.82188
2177 1 13.6474 21.6117 7.47324 13.4802 0.953452 4.1729
1223 1 17.5026 19.9449 5.64142 -3.09371 3.18218 -8.60636
2181 1 17.4334 21.6991 7.27116 -1.20463 1.23964 -6.31437
1224 1 19.3874 18.2469 5.55321 -1.98246 -5.53934 0.249641
2125 2 20.7383 17.9463 7.14898 -5.37353 0.446476 -2.30282
1227 3 20.8947 20.1759 5.69321 -2.86141 -4.1405 -5.84581
1284 2 19.1452 21.7072 5.35216 5.61872 -0.0265976 -1.8442
2122 2 19.0351 19.8056 7.39615 -0.518663 3.67817 8.92037
2185 2 21.0265 21.8511 7.56027 0.657952 4.00006 -2.35468
2129 1 24.5617 18.1879 7.36097 -0.509945 1.34042 -1.62832
1232 1 26.4228 18.1834 5.23979 3.04856 1.50195 -2.96969
1228 3 22.6442 18.128 5.72181 1.12688 -1.17909 -1.07965
1231 3 24.7438 19.8539 5.60158 3.71141 -0.259152 2.57084
1288 3 22.7531 21.6938 5.49684 -0.0983885 3.63463 6.94047
2126 3 22.6796 19.8672 7.31779 2.51691 -2.55871 0.737069